 #  C with hexagonal graphite structure with box vectors H1=[2-1-10], H2=[-12-10], H3=[0001].
  
       24960  atoms
           6  atom types
 
      0.000000000000     403.440000000000  xlo xhi
     -6      58  ylo yhi
      -12     24  zlo zhi
 
Masses
 
            1   12.01100000             # C
            2   12.01100000             # C
            3   12.01100000             # C
            4   12.01100000             # C
            5   12.01100000             # C
            6   12.01100000             # C
 
Atoms # atomic
 
1	1	1	0	1.42028	0
2	1	1	1.23	3.5507	0
3	2	2	0	0	3.4
4	2	2	1.23	2.13042	3.4
5	2	2	1.23	0.71014	3.4
6	2	2	0	2.84056	3.4
7	1	1	0	0	0
8	1	1	1.23	2.13042	0
9	1	1	2.46	1.42028	0
10	1	1	3.69	3.5507	0
11	2	2	2.46	0	3.4
12	2	2	3.69	2.13042	3.4
13	2	2	3.69	0.71014	3.4
14	2	2	2.46	2.84056	3.4
15	1	1	2.46	0	0
16	1	1	3.69	2.13042	0
17	1	1	4.92	1.42028	0
18	1	1	6.15	3.5507	0
19	2	2	4.92	0	3.4
20	2	2	6.15	2.13042	3.4
21	2	2	6.15	0.71014	3.4
22	2	2	4.92	2.84056	3.4
23	1	1	4.92	0	0
24	1	1	6.15	2.13042	0
25	1	1	7.38	1.42028	0
26	1	1	8.61	3.5507	0
27	2	2	7.38	0	3.4
28	2	2	8.61	2.13042	3.4
29	2	2	8.61	0.71014	3.4
30	2	2	7.38	2.84056	3.4
31	1	1	7.38	0	0
32	1	1	8.61	2.13042	0
33	1	1	9.84	1.42028	0
34	1	1	11.07	3.5507	0
35	2	2	9.84	0	3.4
36	2	2	11.07	2.13042	3.4
37	2	2	11.07	0.71014	3.4
38	2	2	9.84	2.84056	3.4
39	1	1	9.84	0	0
40	1	1	11.07	2.13042	0
41	1	1	12.3	1.42028	0
42	1	1	13.53	3.5507	0
43	2	2	12.3	0	3.4
44	2	2	13.53	2.13042	3.4
45	2	2	13.53	0.71014	3.4
46	2	2	12.3	2.84056	3.4
47	1	1	12.3	0	0
48	1	1	13.53	2.13042	0
49	1	1	14.76	1.42028	0
50	1	1	15.99	3.5507	0
51	2	2	14.76	0	3.4
52	2	2	15.99	2.13042	3.4
53	2	2	15.99	0.71014	3.4
54	2	2	14.76	2.84056	3.4
55	1	1	14.76	0	0
56	1	1	15.99	2.13042	0
57	1	1	17.22	1.42028	0
58	1	1	18.45	3.5507	0
59	2	2	17.22	0	3.4
60	2	2	18.45	2.13042	3.4
61	2	2	18.45	0.71014	3.4
62	2	2	17.22	2.84056	3.4
63	1	1	17.22	0	0
64	1	1	18.45	2.13042	0
65	1	1	19.68	1.42028	0
66	1	1	20.91	3.5507	0
67	2	2	19.68	0	3.4
68	2	2	20.91	2.13042	3.4
69	2	2	20.91	0.71014	3.4
70	2	2	19.68	2.84056	3.4
71	1	1	19.68	0	0
72	1	1	20.91	2.13042	0
73	1	1	22.14	1.42028	0
74	1	1	23.37	3.5507	0
75	2	2	22.14	0	3.4
76	2	2	23.37	2.13042	3.4
77	2	2	23.37	0.71014	3.4
78	2	2	22.14	2.84056	3.4
79	1	1	22.14	0	0
80	1	1	23.37	2.13042	0
81	1	1	24.6	1.42028	0
82	1	1	25.83	3.5507	0
83	2	2	24.6	0	3.4
84	2	2	25.83	2.13042	3.4
85	2	2	25.83	0.71014	3.4
86	2	2	24.6	2.84056	3.4
87	1	1	24.6	0	0
88	1	1	25.83	2.13042	0
89	1	1	27.06	1.42028	0
90	1	1	28.29	3.5507	0
91	2	2	27.06	0	3.4
92	2	2	28.29	2.13042	3.4
93	2	2	28.29	0.71014	3.4
94	2	2	27.06	2.84056	3.4
95	1	1	27.06	0	0
96	1	1	28.29	2.13042	0
97	1	1	29.52	1.42028	0
98	1	1	30.75	3.5507	0
99	2	2	29.52	0	3.4
100	2	2	30.75	2.13042	3.4
101	2	2	30.75	0.71014	3.4
102	2	2	29.52	2.84056	3.4
103	1	1	29.52	0	0
104	1	1	30.75	2.13042	0
105	1	1	31.98	1.42028	0
106	1	1	33.21	3.5507	0
107	2	2	31.98	0	3.4
108	2	2	33.21	2.13042	3.4
109	2	2	33.21	0.71014	3.4
110	2	2	31.98	2.84056	3.4
111	1	1	31.98	0	0
112	1	1	33.21	2.13042	0
113	1	1	34.44	1.42028	0
114	1	1	35.67	3.5507	0
115	2	2	34.44	0	3.4
116	2	2	35.67	2.13042	3.4
117	2	2	35.67	0.71014	3.4
118	2	2	34.44	2.84056	3.4
119	1	1	34.44	0	0
120	1	1	35.67	2.13042	0
121	1	1	36.9	1.42028	0
122	1	1	38.13	3.5507	0
123	2	2	36.9	0	3.4
124	2	2	38.13	2.13042	3.4
125	2	2	38.13	0.71014	3.4
126	2	2	36.9	2.84056	3.4
127	1	1	36.9	0	0
128	1	1	38.13	2.13042	0
129	1	1	39.36	1.42028	0
130	1	1	40.59	3.5507	0
131	2	2	39.36	0	3.4
132	2	2	40.59	2.13042	3.4
133	2	2	40.59	0.71014	3.4
134	2	2	39.36	2.84056	3.4
135	1	1	39.36	0	0
136	1	1	40.59	2.13042	0
137	1	1	41.82	1.42028	0
138	1	1	43.05	3.5507	0
139	2	2	41.82	0	3.4
140	2	2	43.05	2.13042	3.4
141	2	2	43.05	0.71014	3.4
142	2	2	41.82	2.84056	3.4
143	1	1	41.82	0	0
144	1	1	43.05	2.13042	0
145	1	1	44.28	1.42028	0
146	1	1	45.51	3.5507	0
147	2	2	44.28	0	3.4
148	2	2	45.51	2.13042	3.4
149	2	2	45.51	0.71014	3.4
150	2	2	44.28	2.84056	3.4
151	1	1	44.28	0	0
152	1	1	45.51	2.13042	0
153	1	1	46.74	1.42028	0
154	1	1	47.97	3.5507	0
155	2	2	46.74	0	3.4
156	2	2	47.97	2.13042	3.4
157	2	2	47.97	0.71014	3.4
158	2	2	46.74	2.84056	3.4
159	1	1	46.74	0	0
160	1	1	47.97	2.13042	0
161	1	1	49.2	1.42028	0
162	1	1	50.43	3.5507	0
163	2	2	49.2	0	3.4
164	2	2	50.43	2.13042	3.4
165	2	2	50.43	0.71014	3.4
166	2	2	49.2	2.84056	3.4
167	1	1	49.2	0	0
168	1	1	50.43	2.13042	0
169	1	1	51.66	1.42028	0
170	1	1	52.89	3.5507	0
171	2	2	51.66	0	3.4
172	2	2	52.89	2.13042	3.4
173	2	2	52.89	0.71014	3.4
174	2	2	51.66	2.84056	3.4
175	1	1	51.66	0	0
176	1	1	52.89	2.13042	0
177	1	1	54.12	1.42028	0
178	1	1	55.35	3.5507	0
179	2	2	54.12	0	3.4
180	2	2	55.35	2.13042	3.4
181	2	2	55.35	0.71014	3.4
182	2	2	54.12	2.84056	3.4
183	1	1	54.12	0	0
184	1	1	55.35	2.13042	0
185	1	1	56.58	1.42028	0
186	1	1	57.81	3.5507	0
187	2	2	56.58	0	3.4
188	2	2	57.81	2.13042	3.4
189	2	2	57.81	0.71014	3.4
190	2	2	56.58	2.84056	3.4
191	1	1	56.58	0	0
192	1	1	57.81	2.13042	0
193	1	1	59.04	1.42028	0
194	1	1	60.27	3.5507	0
195	2	2	59.04	0	3.4
196	2	2	60.27	2.13042	3.4
197	2	2	60.27	0.71014	3.4
198	2	2	59.04	2.84056	3.4
199	1	1	59.04	0	0
200	1	1	60.27	2.13042	0
201	1	1	61.5	1.42028	0
202	1	1	62.73	3.5507	0
203	2	2	61.5	0	3.4
204	2	2	62.73	2.13042	3.4
205	2	2	62.73	0.71014	3.4
206	2	2	61.5	2.84056	3.4
207	1	1	61.5	0	0
208	1	1	62.73	2.13042	0
209	1	1	63.96	1.42028	0
210	1	1	65.19	3.5507	0
211	2	2	63.96	0	3.4
212	2	2	65.19	2.13042	3.4
213	2	2	65.19	0.71014	3.4
214	2	2	63.96	2.84056	3.4
215	1	1	63.96	0	0
216	1	1	65.19	2.13042	0
217	1	1	66.42	1.42028	0
218	1	1	67.65	3.5507	0
219	2	2	66.42	0	3.4
220	2	2	67.65	2.13042	3.4
221	2	2	67.65	0.71014	3.4
222	2	2	66.42	2.84056	3.4
223	1	1	66.42	0	0
224	1	1	67.65	2.13042	0
225	1	1	68.88	1.42028	0
226	1	1	70.11	3.5507	0
227	2	2	68.88	0	3.4
228	2	2	70.11	2.13042	3.4
229	2	2	70.11	0.71014	3.4
230	2	2	68.88	2.84056	3.4
231	1	1	68.88	0	0
232	1	1	70.11	2.13042	0
233	1	1	71.34	1.42028	0
234	1	1	72.57	3.5507	0
235	2	2	71.34	0	3.4
236	2	2	72.57	2.13042	3.4
237	2	2	72.57	0.71014	3.4
238	2	2	71.34	2.84056	3.4
239	1	1	71.34	0	0
240	1	1	72.57	2.13042	0
241	1	1	73.8	1.42028	0
242	1	1	75.03	3.5507	0
243	2	2	73.8	0	3.4
244	2	2	75.03	2.13042	3.4
245	2	2	75.03	0.71014	3.4
246	2	2	73.8	2.84056	3.4
247	1	1	73.8	0	0
248	1	1	75.03	2.13042	0
249	1	1	76.26	1.42028	0
250	1	1	77.49	3.5507	0
251	2	2	76.26	0	3.4
252	2	2	77.49	2.13042	3.4
253	2	2	77.49	0.71014	3.4
254	2	2	76.26	2.84056	3.4
255	1	1	76.26	0	0
256	1	1	77.49	2.13042	0
257	1	1	78.72	1.42028	0
258	1	1	79.95	3.5507	0
259	2	2	78.72	0	3.4
260	2	2	79.95	2.13042	3.4
261	2	2	79.95	0.71014	3.4
262	2	2	78.72	2.84056	3.4
263	1	1	78.72	0	0
264	1	1	79.95	2.13042	0
265	1	1	81.18	1.42028	0
266	1	1	82.41	3.5507	0
267	2	2	81.18	0	3.4
268	2	2	82.41	2.13042	3.4
269	2	2	82.41	0.71014	3.4
270	2	2	81.18	2.84056	3.4
271	1	1	81.18	0	0
272	1	1	82.41	2.13042	0
273	1	1	83.64	1.42028	0
274	1	1	84.87	3.5507	0
275	2	2	83.64	0	3.4
276	2	2	84.87	2.13042	3.4
277	2	2	84.87	0.71014	3.4
278	2	2	83.64	2.84056	3.4
279	1	1	83.64	0	0
280	1	1	84.87	2.13042	0
281	1	1	86.1	1.42028	0
282	1	1	87.33	3.5507	0
283	2	2	86.1	0	3.4
284	2	2	87.33	2.13042	3.4
285	2	2	87.33	0.71014	3.4
286	2	2	86.1	2.84056	3.4
287	1	1	86.1	0	0
288	1	1	87.33	2.13042	0
289	1	1	88.56	1.42028	0
290	1	1	89.79	3.5507	0
291	2	2	88.56	0	3.4
292	2	2	89.79	2.13042	3.4
293	2	2	89.79	0.71014	3.4
294	2	2	88.56	2.84056	3.4
295	1	1	88.56	0	0
296	1	1	89.79	2.13042	0
297	1	1	91.02	1.42028	0
298	1	1	92.25	3.5507	0
299	2	2	91.02	0	3.4
300	2	2	92.25	2.13042	3.4
301	2	2	92.25	0.71014	3.4
302	2	2	91.02	2.84056	3.4
303	1	1	91.02	0	0
304	1	1	92.25	2.13042	0
305	1	1	93.48	1.42028	0
306	1	1	94.71	3.5507	0
307	2	2	93.48	0	3.4
308	2	2	94.71	2.13042	3.4
309	2	2	94.71	0.71014	3.4
310	2	2	93.48	2.84056	3.4
311	1	1	93.48	0	0
312	1	1	94.71	2.13042	0
313	1	1	95.94	1.42028	0
314	1	1	97.17	3.5507	0
315	2	2	95.94	0	3.4
316	2	2	97.17	2.13042	3.4
317	2	2	97.17	0.71014	3.4
318	2	2	95.94	2.84056	3.4
319	1	1	95.94	0	0
320	1	1	97.17	2.13042	0
321	1	1	98.4	1.42028	0
322	1	1	99.63	3.5507	0
323	2	2	98.4	0	3.4
324	2	2	99.63	2.13042	3.4
325	2	2	99.63	0.71014	3.4
326	2	2	98.4	2.84056	3.4
327	1	1	98.4	0	0
328	1	1	99.63	2.13042	0
329	1	1	100.86	1.42028	0
330	1	1	102.09	3.5507	0
331	2	2	100.86	0	3.4
332	2	2	102.09	2.13042	3.4
333	2	2	102.09	0.71014	3.4
334	2	2	100.86	2.84056	3.4
335	1	1	100.86	0	0
336	1	1	102.09	2.13042	0
337	1	1	103.32	1.42028	0
338	1	1	104.55	3.5507	0
339	2	2	103.32	0	3.4
340	2	2	104.55	2.13042	3.4
341	2	2	104.55	0.71014	3.4
342	2	2	103.32	2.84056	3.4
343	1	1	103.32	0	0
344	1	1	104.55	2.13042	0
345	1	1	105.78	1.42028	0
346	1	1	107.01	3.5507	0
347	2	2	105.78	0	3.4
348	2	2	107.01	2.13042	3.4
349	2	2	107.01	0.71014	3.4
350	2	2	105.78	2.84056	3.4
351	1	1	105.78	0	0
352	1	1	107.01	2.13042	0
353	1	1	108.24	1.42028	0
354	1	1	109.47	3.5507	0
355	2	2	108.24	0	3.4
356	2	2	109.47	2.13042	3.4
357	2	2	109.47	0.71014	3.4
358	2	2	108.24	2.84056	3.4
359	1	1	108.24	0	0
360	1	1	109.47	2.13042	0
361	1	1	110.7	1.42028	0
362	1	1	111.93	3.5507	0
363	2	2	110.7	0	3.4
364	2	2	111.93	2.13042	3.4
365	2	2	111.93	0.71014	3.4
366	2	2	110.7	2.84056	3.4
367	1	1	110.7	0	0
368	1	1	111.93	2.13042	0
369	1	1	113.16	1.42028	0
370	1	1	114.39	3.5507	0
371	2	2	113.16	0	3.4
372	2	2	114.39	2.13042	3.4
373	2	2	114.39	0.71014	3.4
374	2	2	113.16	2.84056	3.4
375	1	1	113.16	0	0
376	1	1	114.39	2.13042	0
377	1	1	115.62	1.42028	0
378	1	1	116.85	3.5507	0
379	2	2	115.62	0	3.4
380	2	2	116.85	2.13042	3.4
381	2	2	116.85	0.71014	3.4
382	2	2	115.62	2.84056	3.4
383	1	1	115.62	0	0
384	1	1	116.85	2.13042	0
385	1	1	118.08	1.42028	0
386	1	1	119.31	3.5507	0
387	2	2	118.08	0	3.4
388	2	2	119.31	2.13042	3.4
389	2	2	119.31	0.71014	3.4
390	2	2	118.08	2.84056	3.4
391	1	1	118.08	0	0
392	1	1	119.31	2.13042	0
393	1	1	120.54	1.42028	0
394	1	1	121.77	3.5507	0
395	2	2	120.54	0	3.4
396	2	2	121.77	2.13042	3.4
397	2	2	121.77	0.71014	3.4
398	2	2	120.54	2.84056	3.4
399	1	1	120.54	0	0
400	1	1	121.77	2.13042	0
401	1	1	123	1.42028	0
402	1	1	124.23	3.5507	0
403	2	2	123	0	3.4
404	2	2	124.23	2.13042	3.4
405	2	2	124.23	0.71014	3.4
406	2	2	123	2.84056	3.4
407	1	1	123	0	0
408	1	1	124.23	2.13042	0
409	1	1	125.46	1.42028	0
410	1	1	126.69	3.5507	0
411	2	2	125.46	0	3.4
412	2	2	126.69	2.13042	3.4
413	2	2	126.69	0.71014	3.4
414	2	2	125.46	2.84056	3.4
415	1	1	125.46	0	0
416	1	1	126.69	2.13042	0
417	1	1	127.92	1.42028	0
418	1	1	129.15	3.5507	0
419	2	2	127.92	0	3.4
420	2	2	129.15	2.13042	3.4
421	2	2	129.15	0.71014	3.4
422	2	2	127.92	2.84056	3.4
423	1	1	127.92	0	0
424	1	1	129.15	2.13042	0
425	1	1	130.38	1.42028	0
426	1	1	131.61	3.5507	0
427	2	2	130.38	0	3.4
428	2	2	131.61	2.13042	3.4
429	2	2	131.61	0.71014	3.4
430	2	2	130.38	2.84056	3.4
431	1	1	130.38	0	0
432	1	1	131.61	2.13042	0
433	1	1	132.84	1.42028	0
434	1	1	134.07	3.5507	0
435	2	2	132.84	0	3.4
436	2	2	134.07	2.13042	3.4
437	2	2	134.07	0.71014	3.4
438	2	2	132.84	2.84056	3.4
439	1	1	132.84	0	0
440	1	1	134.07	2.13042	0
441	1	1	135.3	1.42028	0
442	1	1	136.53	3.5507	0
443	2	2	135.3	0	3.4
444	2	2	136.53	2.13042	3.4
445	2	2	136.53	0.71014	3.4
446	2	2	135.3	2.84056	3.4
447	1	1	135.3	0	0
448	1	1	136.53	2.13042	0
449	1	1	137.76	1.42028	0
450	1	1	138.99	3.5507	0
451	2	2	137.76	0	3.4
452	2	2	138.99	2.13042	3.4
453	2	2	138.99	0.71014	3.4
454	2	2	137.76	2.84056	3.4
455	1	1	137.76	0	0
456	1	1	138.99	2.13042	0
457	1	1	140.22	1.42028	0
458	1	1	141.45	3.5507	0
459	2	2	140.22	0	3.4
460	2	2	141.45	2.13042	3.4
461	2	2	141.45	0.71014	3.4
462	2	2	140.22	2.84056	3.4
463	1	1	140.22	0	0
464	1	1	141.45	2.13042	0
465	1	1	142.68	1.42028	0
466	1	1	143.91	3.5507	0
467	2	2	142.68	0	3.4
468	2	2	143.91	2.13042	3.4
469	2	2	143.91	0.71014	3.4
470	2	2	142.68	2.84056	3.4
471	1	1	142.68	0	0
472	1	1	143.91	2.13042	0
473	1	1	145.14	1.42028	0
474	1	1	146.37	3.5507	0
475	2	2	145.14	0	3.4
476	2	2	146.37	2.13042	3.4
477	2	2	146.37	0.71014	3.4
478	2	2	145.14	2.84056	3.4
479	1	1	145.14	0	0
480	1	1	146.37	2.13042	0
481	1	1	147.6	1.42028	0
482	1	1	148.83	3.5507	0
483	2	2	147.6	0	3.4
484	2	2	148.83	2.13042	3.4
485	2	2	148.83	0.71014	3.4
486	2	2	147.6	2.84056	3.4
487	1	1	147.6	0	0
488	1	1	148.83	2.13042	0
489	1	1	150.06	1.42028	0
490	1	1	151.29	3.5507	0
491	2	2	150.06	0	3.4
492	2	2	151.29	2.13042	3.4
493	2	2	151.29	0.71014	3.4
494	2	2	150.06	2.84056	3.4
495	1	1	150.06	0	0
496	1	1	151.29	2.13042	0
497	1	1	152.52	1.42028	0
498	1	1	153.75	3.5507	0
499	2	2	152.52	0	3.4
500	2	2	153.75	2.13042	3.4
501	2	2	153.75	0.71014	3.4
502	2	2	152.52	2.84056	3.4
503	1	1	152.52	0	0
504	1	1	153.75	2.13042	0
505	1	1	154.98	1.42028	0
506	1	1	156.21	3.5507	0
507	2	2	154.98	0	3.4
508	2	2	156.21	2.13042	3.4
509	2	2	156.21	0.71014	3.4
510	2	2	154.98	2.84056	3.4
511	1	1	154.98	0	0
512	1	1	156.21	2.13042	0
513	1	1	157.44	1.42028	0
514	1	1	158.67	3.5507	0
515	2	2	157.44	0	3.4
516	2	2	158.67	2.13042	3.4
517	2	2	158.67	0.71014	3.4
518	2	2	157.44	2.84056	3.4
519	1	1	157.44	0	0
520	1	1	158.67	2.13042	0
521	1	1	159.9	1.42028	0
522	1	1	161.13	3.5507	0
523	2	2	159.9	0	3.4
524	2	2	161.13	2.13042	3.4
525	2	2	161.13	0.71014	3.4
526	2	2	159.9	2.84056	3.4
527	1	1	159.9	0	0
528	1	1	161.13	2.13042	0
529	1	1	162.36	1.42028	0
530	1	1	163.59	3.5507	0
531	2	2	162.36	0	3.4
532	2	2	163.59	2.13042	3.4
533	2	2	163.59	0.71014	3.4
534	2	2	162.36	2.84056	3.4
535	1	1	162.36	0	0
536	1	1	163.59	2.13042	0
537	1	1	164.82	1.42028	0
538	1	1	166.05	3.5507	0
539	2	2	164.82	0	3.4
540	2	2	166.05	2.13042	3.4
541	2	2	166.05	0.71014	3.4
542	2	2	164.82	2.84056	3.4
543	1	1	164.82	0	0
544	1	1	166.05	2.13042	0
545	1	1	167.28	1.42028	0
546	1	1	168.51	3.5507	0
547	2	2	167.28	0	3.4
548	2	2	168.51	2.13042	3.4
549	2	2	168.51	0.71014	3.4
550	2	2	167.28	2.84056	3.4
551	1	1	167.28	0	0
552	1	1	168.51	2.13042	0
553	1	1	169.74	1.42028	0
554	1	1	170.97	3.5507	0
555	2	2	169.74	0	3.4
556	2	2	170.97	2.13042	3.4
557	2	2	170.97	0.71014	3.4
558	2	2	169.74	2.84056	3.4
559	1	1	169.74	0	0
560	1	1	170.97	2.13042	0
561	1	1	172.2	1.42028	0
562	1	1	173.43	3.5507	0
563	2	2	172.2	0	3.4
564	2	2	173.43	2.13042	3.4
565	2	2	173.43	0.71014	3.4
566	2	2	172.2	2.84056	3.4
567	1	1	172.2	0	0
568	1	1	173.43	2.13042	0
569	1	1	174.66	1.42028	0
570	1	1	175.89	3.5507	0
571	2	2	174.66	0	3.4
572	2	2	175.89	2.13042	3.4
573	2	2	175.89	0.71014	3.4
574	2	2	174.66	2.84056	3.4
575	1	1	174.66	0	0
576	1	1	175.89	2.13042	0
577	1	1	177.12	1.42028	0
578	1	1	178.35	3.5507	0
579	2	2	177.12	0	3.4
580	2	2	178.35	2.13042	3.4
581	2	2	178.35	0.71014	3.4
582	2	2	177.12	2.84056	3.4
583	1	1	177.12	0	0
584	1	1	178.35	2.13042	0
585	1	1	179.58	1.42028	0
586	1	1	180.81	3.5507	0
587	2	2	179.58	0	3.4
588	2	2	180.81	2.13042	3.4
589	2	2	180.81	0.71014	3.4
590	2	2	179.58	2.84056	3.4
591	1	1	179.58	0	0
592	1	1	180.81	2.13042	0
593	1	1	182.04	1.42028	0
594	1	1	183.27	3.5507	0
595	2	2	182.04	0	3.4
596	2	2	183.27	2.13042	3.4
597	2	2	183.27	0.71014	3.4
598	2	2	182.04	2.84056	3.4
599	1	1	182.04	0	0
600	1	1	183.27	2.13042	0
601	1	1	184.5	1.42028	0
602	1	1	185.73	3.5507	0
603	2	2	184.5	0	3.4
604	2	2	185.73	2.13042	3.4
605	2	2	185.73	0.71014	3.4
606	2	2	184.5	2.84056	3.4
607	1	1	184.5	0	0
608	1	1	185.73	2.13042	0
609	1	1	186.96	1.42028	0
610	1	1	188.19	3.5507	0
611	2	2	186.96	0	3.4
612	2	2	188.19	2.13042	3.4
613	2	2	188.19	0.71014	3.4
614	2	2	186.96	2.84056	3.4
615	1	1	186.96	0	0
616	1	1	188.19	2.13042	0
617	1	1	189.42	1.42028	0
618	1	1	190.65	3.5507	0
619	2	2	189.42	0	3.4
620	2	2	190.65	2.13042	3.4
621	2	2	190.65	0.71014	3.4
622	2	2	189.42	2.84056	3.4
623	1	1	189.42	0	0
624	1	1	190.65	2.13042	0
625	1	1	191.88	1.42028	0
626	1	1	193.11	3.5507	0
627	2	2	191.88	0	3.4
628	2	2	193.11	2.13042	3.4
629	2	2	193.11	0.71014	3.4
630	2	2	191.88	2.84056	3.4
631	1	1	191.88	0	0
632	1	1	193.11	2.13042	0
633	1	1	194.34	1.42028	0
634	1	1	195.57	3.5507	0
635	2	2	194.34	0	3.4
636	2	2	195.57	2.13042	3.4
637	2	2	195.57	0.71014	3.4
638	2	2	194.34	2.84056	3.4
639	1	1	194.34	0	0
640	1	1	195.57	2.13042	0
641	1	1	196.8	1.42028	0
642	1	1	198.03	3.5507	0
643	2	2	196.8	0	3.4
644	2	2	198.03	2.13042	3.4
645	2	2	198.03	0.71014	3.4
646	2	2	196.8	2.84056	3.4
647	1	1	196.8	0	0
648	1	1	198.03	2.13042	0
649	1	1	199.26	1.42028	0
650	1	1	200.49	3.5507	0
651	2	2	199.26	0	3.4
652	2	2	200.49	2.13042	3.4
653	2	2	200.49	0.71014	3.4
654	2	2	199.26	2.84056	3.4
655	1	1	199.26	0	0
656	1	1	200.49	2.13042	0
657	1	1	0	5.68113	0
658	1	1	1.23	7.81155	0
659	2	2	0	4.26084	3.4
660	2	2	1.23	6.39127	3.4
661	2	2	1.23	4.97099	3.4
662	2	2	0	7.10141	3.4
663	1	1	0	4.26084	0
664	1	1	1.23	6.39127	0
665	1	1	2.46	5.68113	0
666	1	1	3.69	7.81155	0
667	2	2	2.46	4.26084	3.4
668	2	2	3.69	6.39127	3.4
669	2	2	3.69	4.97099	3.4
670	2	2	2.46	7.10141	3.4
671	1	1	2.46	4.26084	0
672	1	1	3.69	6.39127	0
673	1	1	4.92	5.68113	0
674	1	1	6.15	7.81155	0
675	2	2	4.92	4.26084	3.4
676	2	2	6.15	6.39127	3.4
677	2	2	6.15	4.97099	3.4
678	2	2	4.92	7.10141	3.4
679	1	1	4.92	4.26084	0
680	1	1	6.15	6.39127	0
681	1	1	7.38	5.68113	0
682	1	1	8.61	7.81155	0
683	2	2	7.38	4.26084	3.4
684	2	2	8.61	6.39127	3.4
685	2	2	8.61	4.97099	3.4
686	2	2	7.38	7.10141	3.4
687	1	1	7.38	4.26084	0
688	1	1	8.61	6.39127	0
689	1	1	9.84	5.68113	0
690	1	1	11.07	7.81155	0
691	2	2	9.84	4.26084	3.4
692	2	2	11.07	6.39127	3.4
693	2	2	11.07	4.97099	3.4
694	2	2	9.84	7.10141	3.4
695	1	1	9.84	4.26084	0
696	1	1	11.07	6.39127	0
697	1	1	12.3	5.68113	0
698	1	1	13.53	7.81155	0
699	2	2	12.3	4.26084	3.4
700	2	2	13.53	6.39127	3.4
701	2	2	13.53	4.97099	3.4
702	2	2	12.3	7.10141	3.4
703	1	1	12.3	4.26084	0
704	1	1	13.53	6.39127	0
705	1	1	14.76	5.68113	0
706	1	1	15.99	7.81155	0
707	2	2	14.76	4.26084	3.4
708	2	2	15.99	6.39127	3.4
709	2	2	15.99	4.97099	3.4
710	2	2	14.76	7.10141	3.4
711	1	1	14.76	4.26084	0
712	1	1	15.99	6.39127	0
713	1	1	17.22	5.68113	0
714	1	1	18.45	7.81155	0
715	2	2	17.22	4.26084	3.4
716	2	2	18.45	6.39127	3.4
717	2	2	18.45	4.97099	3.4
718	2	2	17.22	7.10141	3.4
719	1	1	17.22	4.26084	0
720	1	1	18.45	6.39127	0
721	1	1	19.68	5.68113	0
722	1	1	20.91	7.81155	0
723	2	2	19.68	4.26084	3.4
724	2	2	20.91	6.39127	3.4
725	2	2	20.91	4.97099	3.4
726	2	2	19.68	7.10141	3.4
727	1	1	19.68	4.26084	0
728	1	1	20.91	6.39127	0
729	1	1	22.14	5.68113	0
730	1	1	23.37	7.81155	0
731	2	2	22.14	4.26084	3.4
732	2	2	23.37	6.39127	3.4
733	2	2	23.37	4.97099	3.4
734	2	2	22.14	7.10141	3.4
735	1	1	22.14	4.26084	0
736	1	1	23.37	6.39127	0
737	1	1	24.6	5.68113	0
738	1	1	25.83	7.81155	0
739	2	2	24.6	4.26084	3.4
740	2	2	25.83	6.39127	3.4
741	2	2	25.83	4.97099	3.4
742	2	2	24.6	7.10141	3.4
743	1	1	24.6	4.26084	0
744	1	1	25.83	6.39127	0
745	1	1	27.06	5.68113	0
746	1	1	28.29	7.81155	0
747	2	2	27.06	4.26084	3.4
748	2	2	28.29	6.39127	3.4
749	2	2	28.29	4.97099	3.4
750	2	2	27.06	7.10141	3.4
751	1	1	27.06	4.26084	0
752	1	1	28.29	6.39127	0
753	1	1	29.52	5.68113	0
754	1	1	30.75	7.81155	0
755	2	2	29.52	4.26084	3.4
756	2	2	30.75	6.39127	3.4
757	2	2	30.75	4.97099	3.4
758	2	2	29.52	7.10141	3.4
759	1	1	29.52	4.26084	0
760	1	1	30.75	6.39127	0
761	1	1	31.98	5.68113	0
762	1	1	33.21	7.81155	0
763	2	2	31.98	4.26084	3.4
764	2	2	33.21	6.39127	3.4
765	2	2	33.21	4.97099	3.4
766	2	2	31.98	7.10141	3.4
767	1	1	31.98	4.26084	0
768	1	1	33.21	6.39127	0
769	1	1	34.44	5.68113	0
770	1	1	35.67	7.81155	0
771	2	2	34.44	4.26084	3.4
772	2	2	35.67	6.39127	3.4
773	2	2	35.67	4.97099	3.4
774	2	2	34.44	7.10141	3.4
775	1	1	34.44	4.26084	0
776	1	1	35.67	6.39127	0
777	1	1	36.9	5.68113	0
778	1	1	38.13	7.81155	0
779	2	2	36.9	4.26084	3.4
780	2	2	38.13	6.39127	3.4
781	2	2	38.13	4.97099	3.4
782	2	2	36.9	7.10141	3.4
783	1	1	36.9	4.26084	0
784	1	1	38.13	6.39127	0
785	1	1	39.36	5.68113	0
786	1	1	40.59	7.81155	0
787	2	2	39.36	4.26084	3.4
788	2	2	40.59	6.39127	3.4
789	2	2	40.59	4.97099	3.4
790	2	2	39.36	7.10141	3.4
791	1	1	39.36	4.26084	0
792	1	1	40.59	6.39127	0
793	1	1	41.82	5.68113	0
794	1	1	43.05	7.81155	0
795	2	2	41.82	4.26084	3.4
796	2	2	43.05	6.39127	3.4
797	2	2	43.05	4.97099	3.4
798	2	2	41.82	7.10141	3.4
799	1	1	41.82	4.26084	0
800	1	1	43.05	6.39127	0
801	1	1	44.28	5.68113	0
802	1	1	45.51	7.81155	0
803	2	2	44.28	4.26084	3.4
804	2	2	45.51	6.39127	3.4
805	2	2	45.51	4.97099	3.4
806	2	2	44.28	7.10141	3.4
807	1	1	44.28	4.26084	0
808	1	1	45.51	6.39127	0
809	1	1	46.74	5.68113	0
810	1	1	47.97	7.81155	0
811	2	2	46.74	4.26084	3.4
812	2	2	47.97	6.39127	3.4
813	2	2	47.97	4.97099	3.4
814	2	2	46.74	7.10141	3.4
815	1	1	46.74	4.26084	0
816	1	1	47.97	6.39127	0
817	1	1	49.2	5.68113	0
818	1	1	50.43	7.81155	0
819	2	2	49.2	4.26084	3.4
820	2	2	50.43	6.39127	3.4
821	2	2	50.43	4.97099	3.4
822	2	2	49.2	7.10141	3.4
823	1	1	49.2	4.26084	0
824	1	1	50.43	6.39127	0
825	1	1	51.66	5.68113	0
826	1	1	52.89	7.81155	0
827	2	2	51.66	4.26084	3.4
828	2	2	52.89	6.39127	3.4
829	2	2	52.89	4.97099	3.4
830	2	2	51.66	7.10141	3.4
831	1	1	51.66	4.26084	0
832	1	1	52.89	6.39127	0
833	1	1	54.12	5.68113	0
834	1	1	55.35	7.81155	0
835	2	2	54.12	4.26084	3.4
836	2	2	55.35	6.39127	3.4
837	2	2	55.35	4.97099	3.4
838	2	2	54.12	7.10141	3.4
839	1	1	54.12	4.26084	0
840	1	1	55.35	6.39127	0
841	1	1	56.58	5.68113	0
842	1	1	57.81	7.81155	0
843	2	2	56.58	4.26084	3.4
844	2	2	57.81	6.39127	3.4
845	2	2	57.81	4.97099	3.4
846	2	2	56.58	7.10141	3.4
847	1	1	56.58	4.26084	0
848	1	1	57.81	6.39127	0
849	1	1	59.04	5.68113	0
850	1	1	60.27	7.81155	0
851	2	2	59.04	4.26084	3.4
852	2	2	60.27	6.39127	3.4
853	2	2	60.27	4.97099	3.4
854	2	2	59.04	7.10141	3.4
855	1	1	59.04	4.26084	0
856	1	1	60.27	6.39127	0
857	1	1	61.5	5.68113	0
858	1	1	62.73	7.81155	0
859	2	2	61.5	4.26084	3.4
860	2	2	62.73	6.39127	3.4
861	2	2	62.73	4.97099	3.4
862	2	2	61.5	7.10141	3.4
863	1	1	61.5	4.26084	0
864	1	1	62.73	6.39127	0
865	1	1	63.96	5.68113	0
866	1	1	65.19	7.81155	0
867	2	2	63.96	4.26084	3.4
868	2	2	65.19	6.39127	3.4
869	2	2	65.19	4.97099	3.4
870	2	2	63.96	7.10141	3.4
871	1	1	63.96	4.26084	0
872	1	1	65.19	6.39127	0
873	1	1	66.42	5.68113	0
874	1	1	67.65	7.81155	0
875	2	2	66.42	4.26084	3.4
876	2	2	67.65	6.39127	3.4
877	2	2	67.65	4.97099	3.4
878	2	2	66.42	7.10141	3.4
879	1	1	66.42	4.26084	0
880	1	1	67.65	6.39127	0
881	1	1	68.88	5.68113	0
882	1	1	70.11	7.81155	0
883	2	2	68.88	4.26084	3.4
884	2	2	70.11	6.39127	3.4
885	2	2	70.11	4.97099	3.4
886	2	2	68.88	7.10141	3.4
887	1	1	68.88	4.26084	0
888	1	1	70.11	6.39127	0
889	1	1	71.34	5.68113	0
890	1	1	72.57	7.81155	0
891	2	2	71.34	4.26084	3.4
892	2	2	72.57	6.39127	3.4
893	2	2	72.57	4.97099	3.4
894	2	2	71.34	7.10141	3.4
895	1	1	71.34	4.26084	0
896	1	1	72.57	6.39127	0
897	1	1	73.8	5.68113	0
898	1	1	75.03	7.81155	0
899	2	2	73.8	4.26084	3.4
900	2	2	75.03	6.39127	3.4
901	2	2	75.03	4.97099	3.4
902	2	2	73.8	7.10141	3.4
903	1	1	73.8	4.26084	0
904	1	1	75.03	6.39127	0
905	1	1	76.26	5.68113	0
906	1	1	77.49	7.81155	0
907	2	2	76.26	4.26084	3.4
908	2	2	77.49	6.39127	3.4
909	2	2	77.49	4.97099	3.4
910	2	2	76.26	7.10141	3.4
911	1	1	76.26	4.26084	0
912	1	1	77.49	6.39127	0
913	1	1	78.72	5.68113	0
914	1	1	79.95	7.81155	0
915	2	2	78.72	4.26084	3.4
916	2	2	79.95	6.39127	3.4
917	2	2	79.95	4.97099	3.4
918	2	2	78.72	7.10141	3.4
919	1	1	78.72	4.26084	0
920	1	1	79.95	6.39127	0
921	1	1	81.18	5.68113	0
922	1	1	82.41	7.81155	0
923	2	2	81.18	4.26084	3.4
924	2	2	82.41	6.39127	3.4
925	2	2	82.41	4.97099	3.4
926	2	2	81.18	7.10141	3.4
927	1	1	81.18	4.26084	0
928	1	1	82.41	6.39127	0
929	1	1	83.64	5.68113	0
930	1	1	84.87	7.81155	0
931	2	2	83.64	4.26084	3.4
932	2	2	84.87	6.39127	3.4
933	2	2	84.87	4.97099	3.4
934	2	2	83.64	7.10141	3.4
935	1	1	83.64	4.26084	0
936	1	1	84.87	6.39127	0
937	1	1	86.1	5.68113	0
938	1	1	87.33	7.81155	0
939	2	2	86.1	4.26084	3.4
940	2	2	87.33	6.39127	3.4
941	2	2	87.33	4.97099	3.4
942	2	2	86.1	7.10141	3.4
943	1	1	86.1	4.26084	0
944	1	1	87.33	6.39127	0
945	1	1	88.56	5.68113	0
946	1	1	89.79	7.81155	0
947	2	2	88.56	4.26084	3.4
948	2	2	89.79	6.39127	3.4
949	2	2	89.79	4.97099	3.4
950	2	2	88.56	7.10141	3.4
951	1	1	88.56	4.26084	0
952	1	1	89.79	6.39127	0
953	1	1	91.02	5.68113	0
954	1	1	92.25	7.81155	0
955	2	2	91.02	4.26084	3.4
956	2	2	92.25	6.39127	3.4
957	2	2	92.25	4.97099	3.4
958	2	2	91.02	7.10141	3.4
959	1	1	91.02	4.26084	0
960	1	1	92.25	6.39127	0
961	1	1	93.48	5.68113	0
962	1	1	94.71	7.81155	0
963	2	2	93.48	4.26084	3.4
964	2	2	94.71	6.39127	3.4
965	2	2	94.71	4.97099	3.4
966	2	2	93.48	7.10141	3.4
967	1	1	93.48	4.26084	0
968	1	1	94.71	6.39127	0
969	1	1	95.94	5.68113	0
970	1	1	97.17	7.81155	0
971	2	2	95.94	4.26084	3.4
972	2	2	97.17	6.39127	3.4
973	2	2	97.17	4.97099	3.4
974	2	2	95.94	7.10141	3.4
975	1	1	95.94	4.26084	0
976	1	1	97.17	6.39127	0
977	1	1	98.4	5.68113	0
978	1	1	99.63	7.81155	0
979	2	2	98.4	4.26084	3.4
980	2	2	99.63	6.39127	3.4
981	2	2	99.63	4.97099	3.4
982	2	2	98.4	7.10141	3.4
983	1	1	98.4	4.26084	0
984	1	1	99.63	6.39127	0
985	1	1	100.86	5.68113	0
986	1	1	102.09	7.81155	0
987	2	2	100.86	4.26084	3.4
988	2	2	102.09	6.39127	3.4
989	2	2	102.09	4.97099	3.4
990	2	2	100.86	7.10141	3.4
991	1	1	100.86	4.26084	0
992	1	1	102.09	6.39127	0
993	1	1	103.32	5.68113	0
994	1	1	104.55	7.81155	0
995	2	2	103.32	4.26084	3.4
996	2	2	104.55	6.39127	3.4
997	2	2	104.55	4.97099	3.4
998	2	2	103.32	7.10141	3.4
999	1	1	103.32	4.26084	0
1000	1	1	104.55	6.39127	0
1001	1	1	105.78	5.68113	0
1002	1	1	107.01	7.81155	0
1003	2	2	105.78	4.26084	3.4
1004	2	2	107.01	6.39127	3.4
1005	2	2	107.01	4.97099	3.4
1006	2	2	105.78	7.10141	3.4
1007	1	1	105.78	4.26084	0
1008	1	1	107.01	6.39127	0
1009	1	1	108.24	5.68113	0
1010	1	1	109.47	7.81155	0
1011	2	2	108.24	4.26084	3.4
1012	2	2	109.47	6.39127	3.4
1013	2	2	109.47	4.97099	3.4
1014	2	2	108.24	7.10141	3.4
1015	1	1	108.24	4.26084	0
1016	1	1	109.47	6.39127	0
1017	1	1	110.7	5.68113	0
1018	1	1	111.93	7.81155	0
1019	2	2	110.7	4.26084	3.4
1020	2	2	111.93	6.39127	3.4
1021	2	2	111.93	4.97099	3.4
1022	2	2	110.7	7.10141	3.4
1023	1	1	110.7	4.26084	0
1024	1	1	111.93	6.39127	0
1025	1	1	113.16	5.68113	0
1026	1	1	114.39	7.81155	0
1027	2	2	113.16	4.26084	3.4
1028	2	2	114.39	6.39127	3.4
1029	2	2	114.39	4.97099	3.4
1030	2	2	113.16	7.10141	3.4
1031	1	1	113.16	4.26084	0
1032	1	1	114.39	6.39127	0
1033	1	1	115.62	5.68113	0
1034	1	1	116.85	7.81155	0
1035	2	2	115.62	4.26084	3.4
1036	2	2	116.85	6.39127	3.4
1037	2	2	116.85	4.97099	3.4
1038	2	2	115.62	7.10141	3.4
1039	1	1	115.62	4.26084	0
1040	1	1	116.85	6.39127	0
1041	1	1	118.08	5.68113	0
1042	1	1	119.31	7.81155	0
1043	2	2	118.08	4.26084	3.4
1044	2	2	119.31	6.39127	3.4
1045	2	2	119.31	4.97099	3.4
1046	2	2	118.08	7.10141	3.4
1047	1	1	118.08	4.26084	0
1048	1	1	119.31	6.39127	0
1049	1	1	120.54	5.68113	0
1050	1	1	121.77	7.81155	0
1051	2	2	120.54	4.26084	3.4
1052	2	2	121.77	6.39127	3.4
1053	2	2	121.77	4.97099	3.4
1054	2	2	120.54	7.10141	3.4
1055	1	1	120.54	4.26084	0
1056	1	1	121.77	6.39127	0
1057	1	1	123	5.68113	0
1058	1	1	124.23	7.81155	0
1059	2	2	123	4.26084	3.4
1060	2	2	124.23	6.39127	3.4
1061	2	2	124.23	4.97099	3.4
1062	2	2	123	7.10141	3.4
1063	1	1	123	4.26084	0
1064	1	1	124.23	6.39127	0
1065	1	1	125.46	5.68113	0
1066	1	1	126.69	7.81155	0
1067	2	2	125.46	4.26084	3.4
1068	2	2	126.69	6.39127	3.4
1069	2	2	126.69	4.97099	3.4
1070	2	2	125.46	7.10141	3.4
1071	1	1	125.46	4.26084	0
1072	1	1	126.69	6.39127	0
1073	1	1	127.92	5.68113	0
1074	1	1	129.15	7.81155	0
1075	2	2	127.92	4.26084	3.4
1076	2	2	129.15	6.39127	3.4
1077	2	2	129.15	4.97099	3.4
1078	2	2	127.92	7.10141	3.4
1079	1	1	127.92	4.26084	0
1080	1	1	129.15	6.39127	0
1081	1	1	130.38	5.68113	0
1082	1	1	131.61	7.81155	0
1083	2	2	130.38	4.26084	3.4
1084	2	2	131.61	6.39127	3.4
1085	2	2	131.61	4.97099	3.4
1086	2	2	130.38	7.10141	3.4
1087	1	1	130.38	4.26084	0
1088	1	1	131.61	6.39127	0
1089	1	1	132.84	5.68113	0
1090	1	1	134.07	7.81155	0
1091	2	2	132.84	4.26084	3.4
1092	2	2	134.07	6.39127	3.4
1093	2	2	134.07	4.97099	3.4
1094	2	2	132.84	7.10141	3.4
1095	1	1	132.84	4.26084	0
1096	1	1	134.07	6.39127	0
1097	1	1	135.3	5.68113	0
1098	1	1	136.53	7.81155	0
1099	2	2	135.3	4.26084	3.4
1100	2	2	136.53	6.39127	3.4
1101	2	2	136.53	4.97099	3.4
1102	2	2	135.3	7.10141	3.4
1103	1	1	135.3	4.26084	0
1104	1	1	136.53	6.39127	0
1105	1	1	137.76	5.68113	0
1106	1	1	138.99	7.81155	0
1107	2	2	137.76	4.26084	3.4
1108	2	2	138.99	6.39127	3.4
1109	2	2	138.99	4.97099	3.4
1110	2	2	137.76	7.10141	3.4
1111	1	1	137.76	4.26084	0
1112	1	1	138.99	6.39127	0
1113	1	1	140.22	5.68113	0
1114	1	1	141.45	7.81155	0
1115	2	2	140.22	4.26084	3.4
1116	2	2	141.45	6.39127	3.4
1117	2	2	141.45	4.97099	3.4
1118	2	2	140.22	7.10141	3.4
1119	1	1	140.22	4.26084	0
1120	1	1	141.45	6.39127	0
1121	1	1	142.68	5.68113	0
1122	1	1	143.91	7.81155	0
1123	2	2	142.68	4.26084	3.4
1124	2	2	143.91	6.39127	3.4
1125	2	2	143.91	4.97099	3.4
1126	2	2	142.68	7.10141	3.4
1127	1	1	142.68	4.26084	0
1128	1	1	143.91	6.39127	0
1129	1	1	145.14	5.68113	0
1130	1	1	146.37	7.81155	0
1131	2	2	145.14	4.26084	3.4
1132	2	2	146.37	6.39127	3.4
1133	2	2	146.37	4.97099	3.4
1134	2	2	145.14	7.10141	3.4
1135	1	1	145.14	4.26084	0
1136	1	1	146.37	6.39127	0
1137	1	1	147.6	5.68113	0
1138	1	1	148.83	7.81155	0
1139	2	2	147.6	4.26084	3.4
1140	2	2	148.83	6.39127	3.4
1141	2	2	148.83	4.97099	3.4
1142	2	2	147.6	7.10141	3.4
1143	1	1	147.6	4.26084	0
1144	1	1	148.83	6.39127	0
1145	1	1	150.06	5.68113	0
1146	1	1	151.29	7.81155	0
1147	2	2	150.06	4.26084	3.4
1148	2	2	151.29	6.39127	3.4
1149	2	2	151.29	4.97099	3.4
1150	2	2	150.06	7.10141	3.4
1151	1	1	150.06	4.26084	0
1152	1	1	151.29	6.39127	0
1153	1	1	152.52	5.68113	0
1154	1	1	153.75	7.81155	0
1155	2	2	152.52	4.26084	3.4
1156	2	2	153.75	6.39127	3.4
1157	2	2	153.75	4.97099	3.4
1158	2	2	152.52	7.10141	3.4
1159	1	1	152.52	4.26084	0
1160	1	1	153.75	6.39127	0