LAMMPS data file via write_data, version 29 Aug 2024, timestep = 1, units = metal

9216 atoms
5 atom types

0 201.72 xlo xhi
-6 58.130139839428 ylo yhi
-20 24 zlo zhi

Masses

1 12.011
2 12.011
3 12.011
4 12.011
5 12.011

Atoms # molecular

1 1 1 0 1.42028 0 0 0 0
2 1 1 1.23 3.5507 0 0 0 0
7 1 1 0 0 0 0 0 0
8 1 1 1.23 2.13042 0 0 0 0
9 1 1 2.46 1.42028 0 0 0 0
10 1 1 3.69 3.5507 0 0 0 0
15 1 1 2.46 0 0 0 0 0
16 1 1 3.69 2.13042 0 0 0 0
17 1 1 4.92 1.42028 0 0 0 0
23 1 1 4.92 0 0 0 0 0
663 1 1 0 4.26084 0 0 0 0
671 1 1 2.46 4.26084 0 0 0 0
679 1 1 4.92 4.26084 0 0 0 0
18 1 1 6.15 3.5507 0 0 0 0
24 1 1 6.15 2.13042 0 0 0 0
25 1 1 7.38 1.42028 0 0 0 0
26 1 1 8.61 3.5507 0 0 0 0
31 1 1 7.38 0 0 0 0 0
32 1 1 8.61 2.13042 0 0 0 0
33 1 1 9.84 1.42028 0 0 0 0
34 1 1 11.07 3.5507 0 0 0 0
39 1 1 9.84 0 0 0 0 0
40 1 1 11.07 2.13042 0 0 0 0
687 1 1 7.38 4.26084 0 0 0 0
695 1 1 9.84 4.26084 0 0 0 0
41 1 1 12.3 1.42028 0 0 0 0
42 1 1 13.53 3.5507 0 0 0 0
47 1 1 12.3 0 0 0 0 0
48 1 1 13.53 2.13042 0 0 0 0
49 1 1 14.76 1.42028 0 0 0 0
50 1 1 15.99 3.5507 0 0 0 0
55 1 1 14.76 0 0 0 0 0
56 1 1 15.99 2.13042 0 0 0 0
703 1 1 12.3 4.26084 0 0 0 0
711 1 1 14.76 4.26084 0 0 0 0
57 1 1 17.22 1.42028 0 0 0 0
58 1 1 18.45 3.5507 0 0 0 0
63 1 1 17.22 0 0 0 0 0
64 1 1 18.45 2.13042 0 0 0 0
65 1 1 19.68 1.42028 0 0 0 0
66 1 1 20.91 3.5507 0 0 0 0
71 1 1 19.68 0 0 0 0 0
72 1 1 20.91 2.13042 0 0 0 0
73 1 1 22.14 1.42028 0 0 0 0
79 1 1 22.14 0 0 0 0 0
719 1 1 17.22 4.26084 0 0 0 0
727 1 1 19.68 4.26084 0 0 0 0
735 1 1 22.14 4.26084 0 0 0 0
74 1 1 23.37 3.5507 0 0 0 0
80 1 1 23.37 2.13042 0 0 0 0
81 1 1 24.6 1.42028 0 0 0 0
82 1 1 25.83 3.5507 0 0 0 0
87 1 1 24.6 0 0 0 0 0
88 1 1 25.83 2.13042 0 0 0 0
89 1 1 27.06 1.42028 0 0 0 0
95 1 1 27.06 0 0 0 0 0
743 1 1 24.6 4.26084 0 0 0 0
751 1 1 27.06 4.26084 0 0 0 0
90 1 1 28.29 3.5507 0 0 0 0
96 1 1 28.29 2.13042 0 0 0 0
97 1 1 29.52 1.42028 0 0 0 0
98 1 1 30.75 3.5507 0 0 0 0
103 1 1 29.52 0 0 0 0 0
104 1 1 30.75 2.13042 0 0 0 0
105 1 1 31.98 1.42028 0 0 0 0
106 1 1 33.21 3.5507 0 0 0 0
111 1 1 31.98 0 0 0 0 0
112 1 1 33.21 2.13042 0 0 0 0
759 1 1 29.52 4.26084 0 0 0 0
767 1 1 31.98 4.26084 0 0 0 0
113 1 1 34.44 1.42028 0 0 0 0
114 1 1 35.67 3.5507 0 0 0 0
119 1 1 34.44 0 0 0 0 0
120 1 1 35.67 2.13042 0 0 0 0
121 1 1 36.9 1.42028 0 0 0 0
122 1 1 38.13 3.5507 0 0 0 0
127 1 1 36.9 0 0 0 0 0
128 1 1 38.13 2.13042 0 0 0 0
775 1 1 34.44 4.26084 0 0 0 0
783 1 1 36.9 4.26084 0 0 0 0
129 1 1 39.36 1.42028 0 0 0 0
130 1 1 40.59 3.5507 0 0 0 0
135 1 1 39.36 0 0 0 0 0
136 1 1 40.59 2.13042 0 0 0 0
137 1 1 41.82 1.42028 0 0 0 0
138 1 1 43.05 3.5507 0 0 0 0
143 1 1 41.82 0 0 0 0 0
144 1 1 43.05 2.13042 0 0 0 0
145 1 1 44.28 1.42028 0 0 0 0
151 1 1 44.28 0 0 0 0 0
791 1 1 39.36 4.26084 0 0 0 0
799 1 1 41.82 4.26084 0 0 0 0
807 1 1 44.28 4.26084 0 0 0 0
146 1 1 45.51 3.5507 0 0 0 0
152 1 1 45.51 2.13042 0 0 0 0
153 1 1 46.74 1.42028 0 0 0 0
154 1 1 47.97 3.5507 0 0 0 0
159 1 1 46.74 0 0 0 0 0
160 1 1 47.97 2.13042 0 0 0 0
161 1 1 49.2 1.42028 0 0 0 0
167 1 1 49.2 0 0 0 0 0
815 1 1 46.74 4.26084 0 0 0 0
823 1 1 49.2 4.26084 0 0 0 0
657 1 1 0 5.68113 0 0 0 0
658 1 1 1.23 7.81155 0 0 0 0
664 1 1 1.23 6.39127 0 0 0 0
665 1 1 2.46 5.68113 0 0 0 0
666 1 1 3.69 7.81155 0 0 0 0
672 1 1 3.69 6.39127 0 0 0 0
673 1 1 4.92 5.68113 0 0 0 0
1313 1 1 0 9.94197 0 0 0 0
1319 1 1 0 8.52169 0 0 0 0
1321 1 1 2.46 9.94197 0 0 0 0
1327 1 1 2.46 8.52169 0 0 0 0
1329 1 1 4.92 9.94197 0 0 0 0
1335 1 1 4.92 8.52169 0 0 0 0
674 1 1 6.15 7.81155 0 0 0 0
680 1 1 6.15 6.39127 0 0 0 0
681 1 1 7.38 5.68113 0 0 0 0
682 1 1 8.61 7.81155 0 0 0 0
688 1 1 8.61 6.39127 0 0 0 0
689 1 1 9.84 5.68113 0 0 0 0
690 1 1 11.07 7.81155 0 0 0 0
696 1 1 11.07 6.39127 0 0 0 0
1337 1 1 7.38 9.94197 0 0 0 0
1343 1 1 7.38 8.52169 0 0 0 0
1345 1 1 9.84 9.94197 0 0 0 0
1351 1 1 9.84 8.52169 0 0 0 0
697 1 1 12.3 5.68113 0 0 0 0
698 1 1 13.53 7.81155 0 0 0 0
704 1 1 13.53 6.39127 0 0 0 0
705 1 1 14.76 5.68113 0 0 0 0
706 1 1 15.99 7.81155 0 0 0 0
712 1 1 15.99 6.39127 0 0 0 0
1353 1 1 12.3 9.94197 0 0 0 0
1359 1 1 12.3 8.52169 0 0 0 0
1361 1 1 14.76 9.94197 0 0 0 0
1367 1 1 14.76 8.52169 0 0 0 0
713 1 1 17.22 5.68113 0 0 0 0
714 1 1 18.45 7.81155 0 0 0 0
720 1 1 18.45 6.39127 0 0 0 0
721 1 1 19.68 5.68113 0 0 0 0
722 1 1 20.91 7.81155 0 0 0 0
728 1 1 20.91 6.39127 0 0 0 0
729 1 1 22.14 5.68113 0 0 0 0
1369 1 1 17.22 9.94197 0 0 0 0
1375 1 1 17.22 8.52169 0 0 0 0
1377 1 1 19.68 9.94197 0 0 0 0
1383 1 1 19.68 8.52169 0 0 0 0
1385 1 1 22.14 9.94197 0 0 0 0
1391 1 1 22.14 8.52169 0 0 0 0
730 1 1 23.37 7.81155 0 0 0 0
736 1 1 23.37 6.39127 0 0 0 0
737 1 1 24.6 5.68113 0 0 0 0
738 1 1 25.83 7.81155 0 0 0 0
744 1 1 25.83 6.39127 0 0 0 0
745 1 1 27.06 5.68113 0 0 0 0
1393 1 1 24.6 9.94197 0 0 0 0
1399 1 1 24.6 8.52169 0 0 0 0
1401 1 1 27.06 9.94197 0 0 0 0
1407 1 1 27.06 8.52169 0 0 0 0
746 1 1 28.29 7.81155 0 0 0 0
752 1 1 28.29 6.39127 0 0 0 0
753 1 1 29.52 5.68113 0 0 0 0
754 1 1 30.75 7.81155 0 0 0 0
760 1 1 30.75 6.39127 0 0 0 0
761 1 1 31.98 5.68113 0 0 0 0
762 1 1 33.21 7.81155 0 0 0 0
768 1 1 33.21 6.39127 0 0 0 0
1409 1 1 29.52 9.94197 0 0 0 0
1415 1 1 29.52 8.52169 0 0 0 0
1417 1 1 31.98 9.94197 0 0 0 0
1423 1 1 31.98 8.52169 0 0 0 0
769 1 1 34.44 5.68113 0 0 0 0
770 1 1 35.67 7.81155 0 0 0 0
776 1 1 35.67 6.39127 0 0 0 0
777 1 1 36.9 5.68113 0 0 0 0
778 1 1 38.13 7.81155 0 0 0 0
784 1 1 38.13 6.39127 0 0 0 0
1425 1 1 34.44 9.94197 0 0 0 0
1431 1 1 34.44 8.52169 0 0 0 0
1433 1 1 36.9 9.94197 0 0 0 0
1439 1 1 36.9 8.52169 0 0 0 0
785 1 1 39.36 5.68113 0 0 0 0
786 1 1 40.59 7.81155 0 0 0 0
792 1 1 40.59 6.39127 0 0 0 0
793 1 1 41.82 5.68113 0 0 0 0
794 1 1 43.05 7.81155 0 0 0 0
800 1 1 43.05 6.39127 0 0 0 0
801 1 1 44.28 5.68113 0 0 0 0
1441 1 1 39.36 9.94197 0 0 0 0
1447 1 1 39.36 8.52169 0 0 0 0
1449 1 1 41.82 9.94197 0 0 0 0
1455 1 1 41.82 8.52169 0 0 0 0
1457 1 1 44.28 9.94197 0 0 0 0
1463 1 1 44.28 8.52169 0 0 0 0
802 1 1 45.51 7.81155 0 0 0 0
808 1 1 45.51 6.39127 0 0 0 0
809 1 1 46.74 5.68113 0 0 0 0
810 1 1 47.97 7.81155 0 0 0 0
816 1 1 47.97 6.39127 0 0 0 0
817 1 1 49.2 5.68113 0 0 0 0
1465 1 1 46.74 9.94197 0 0 0 0
1471 1 1 46.74 8.52169 0 0 0 0
1473 1 1 49.2 9.94197 0 0 0 0
1479 1 1 49.2 8.52169 0 0 0 0
1314 1 1 1.23 12.07239 0 0 0 0
1320 1 1 1.23 10.65211 0 0 0 0
1322 1 1 3.69 12.07239 0 0 0 0
1328 1 1 3.69 10.65211 0 0 0 0
1969 1 1 0 14.20282 0 0 0 0
1975 1 1 0 12.78253 0 0 0 0
1976 1 1 1.23 14.91296 0 0 0 0
1977 1 1 2.46 14.20282 0 0 0 0
1983 1 1 2.46 12.78253 0 0 0 0
1984 1 1 3.69 14.91296 0 0 0 0
1985 1 1 4.92 14.20282 0 0 0 0
1991 1 1 4.92 12.78253 0 0 0 0
1330 1 1 6.15 12.07239 0 0 0 0
1336 1 1 6.15 10.65211 0 0 0 0
1338 1 1 8.61 12.07239 0 0 0 0
1344 1 1 8.61 10.65211 0 0 0 0
1346 1 1 11.07 12.07239 0 0 0 0
1352 1 1 11.07 10.65211 0 0 0 0
1992 1 1 6.15 14.91296 0 0 0 0
1993 1 1 7.38 14.20282 0 0 0 0
1999 1 1 7.38 12.78253 0 0 0 0
2000 1 1 8.61 14.91296 0 0 0 0
2001 1 1 9.84 14.20282 0 0 0 0
2007 1 1 9.84 12.78253 0 0 0 0
2008 1 1 11.07 14.91296 0 0 0 0
1354 1 1 13.53 12.07239 0 0 0 0
1360 1 1 13.53 10.65211 0 0 0 0
1362 1 1 15.99 12.07239 0 0 0 0
1368 1 1 15.99 10.65211 0 0 0 0
2009 1 1 12.3 14.20282 0 0 0 0
2015 1 1 12.3 12.78253 0 0 0 0
2016 1 1 13.53 14.91296 0 0 0 0
2017 1 1 14.76 14.20282 0 0 0 0
2023 1 1 14.76 12.78253 0 0 0 0
2024 1 1 15.99 14.91296 0 0 0 0
1370 1 1 18.45 12.07239 0 0 0 0
1376 1 1 18.45 10.65211 0 0 0 0
1378 1 1 20.91 12.07239 0 0 0 0
1384 1 1 20.91 10.65211 0 0 0 0
2025 1 1 17.22 14.20282 0 0 0 0
2031 1 1 17.22 12.78253 0 0 0 0
2032 1 1 18.45 14.91296 0 0 0 0
2033 1 1 19.68 14.20282 0 0 0 0
2039 1 1 19.68 12.78253 0 0 0 0
2040 1 1 20.91 14.91296 0 0 0 0
2041 1 1 22.14 14.20282 0 0 0 0
2047 1 1 22.14 12.78253 0 0 0 0
1386 1 1 23.37 12.07239 0 0 0 0
1392 1 1 23.37 10.65211 0 0 0 0
1394 1 1 25.83 12.07239 0 0 0 0
1400 1 1 25.83 10.65211 0 0 0 0
2048 1 1 23.37 14.91296 0 0 0 0
2049 1 1 24.6 14.20282 0 0 0 0
2055 1 1 24.6 12.78253 0 0 0 0
2056 1 1 25.83 14.91296 0 0 0 0
2057 1 1 27.06 14.20282 0 0 0 0
2063 1 1 27.06 12.78253 0 0 0 0
1402 1 1 28.29 12.07239 0 0 0 0
1408 1 1 28.29 10.65211 0 0 0 0
1410 1 1 30.75 12.07239 0 0 0 0
1416 1 1 30.75 10.65211 0 0 0 0
1418 1 1 33.21 12.07239 0 0 0 0
1424 1 1 33.21 10.65211 0 0 0 0
2064 1 1 28.29 14.91296 0 0 0 0
2065 1 1 29.52 14.20282 0 0 0 0
2071 1 1 29.52 12.78253 0 0 0 0
2072 1 1 30.75 14.91296 0 0 0 0
2073 1 1 31.98 14.20282 0 0 0 0
2079 1 1 31.98 12.78253 0 0 0 0
2080 1 1 33.21 14.91296 0 0 0 0
1426 1 1 35.67 12.07239 0 0 0 0
1432 1 1 35.67 10.65211 0 0 0 0
1434 1 1 38.13 12.07239 0 0 0 0
1440 1 1 38.13 10.65211 0 0 0 0
2081 1 1 34.44 14.20282 0 0 0 0
2087 1 1 34.44 12.78253 0 0 0 0
2088 1 1 35.67 14.91296 0 0 0 0
2089 1 1 36.9 14.20282 0 0 0 0
2095 1 1 36.9 12.78253 0 0 0 0
2096 1 1 38.13 14.91296 0 0 0 0
1442 1 1 40.59 12.07239 0 0 0 0
1448 1 1 40.59 10.65211 0 0 0 0
1450 1 1 43.05 12.07239 0 0 0 0
1456 1 1 43.05 10.65211 0 0 0 0
2097 1 1 39.36 14.20282 0 0 0 0
2103 1 1 39.36 12.78253 0 0 0 0
2104 1 1 40.59 14.91296 0 0 0 0
2105 1 1 41.82 14.20282 0 0 0 0
2111 1 1 41.82 12.78253 0 0 0 0
2112 1 1 43.05 14.91296 0 0 0 0
2113 1 1 44.28 14.20282 0 0 0 0
2119 1 1 44.28 12.78253 0 0 0 0
1458 1 1 45.51 12.07239 0 0 0 0
1464 1 1 45.51 10.65211 0 0 0 0
1466 1 1 47.97 12.07239 0 0 0 0
1472 1 1 47.97 10.65211 0 0 0 0
2120 1 1 45.51 14.91296 0 0 0 0
2121 1 1 46.74 14.20282 0 0 0 0
2127 1 1 46.74 12.78253 0 0 0 0
2128 1 1 47.97 14.91296 0 0 0 0
2129 1 1 49.2 14.20282 0 0 0 0
2135 1 1 49.2 12.78253 0 0 0 0
1970 1 1 1.23 16.33324 0 0 0 0
1978 1 1 3.69 16.33324 0 0 0 0
2625 1 1 0 18.46366 0 0 0 0
2626 1 1 1.23 20.59408 0 0 0 0
2631 1 1 0 17.04338 0 0 0 0
2632 1 1 1.23 19.1738 0 0 0 0
2633 1 1 2.46 18.46366 0 0 0 0
2634 1 1 3.69 20.59408 0 0 0 0
2639 1 1 2.46 17.04338 0 0 0 0
2640 1 1 3.69 19.1738 0 0 0 0
2641 1 1 4.92 18.46366 0 0 0 0
2647 1 1 4.92 17.04338 0 0 0 0
1986 1 1 6.15 16.33324 0 0 0 0
1994 1 1 8.61 16.33324 0 0 0 0
2002 1 1 11.07 16.33324 0 0 0 0
2642 1 1 6.15 20.59408 0 0 0 0
2648 1 1 6.15 19.1738 0 0 0 0
2649 1 1 7.38 18.46366 0 0 0 0
2650 1 1 8.61 20.59408 0 0 0 0
2655 1 1 7.38 17.04338 0 0 0 0
2656 1 1 8.61 19.1738 0 0 0 0
2657 1 1 9.84 18.46366 0 0 0 0
2658 1 1 11.07 20.59408 0 0 0 0
2663 1 1 9.84 17.04338 0 0 0 0
2664 1 1 11.07 19.1738 0 0 0 0
2010 1 1 13.53 16.33324 0 0 0 0
2018 1 1 15.99 16.33324 0 0 0 0
2665 1 1 12.3 18.46366 0 0 0 0
2666 1 1 13.53 20.59408 0 0 0 0
2671 1 1 12.3 17.04338 0 0 0 0
2672 1 1 13.53 19.1738 0 0 0 0
2673 1 1 14.76 18.46366 0 0 0 0
2674 1 1 15.99 20.59408 0 0 0 0
2679 1 1 14.76 17.04338 0 0 0 0
2680 1 1 15.99 19.1738 0 0 0 0
2026 1 1 18.45 16.33324 0 0 0 0
2034 1 1 20.91 16.33324 0 0 0 0
2681 1 1 17.22 18.46366 0 0 0 0
2682 1 1 18.45 20.59408 0 0 0 0
2687 1 1 17.22 17.04338 0 0 0 0
2688 1 1 18.45 19.1738 0 0 0 0
2689 1 1 19.68 18.46366 0 0 0 0
2690 1 1 20.91 20.59408 0 0 0 0
2695 1 1 19.68 17.04338 0 0 0 0
2696 1 1 20.91 19.1738 0 0 0 0
2697 1 1 22.14 18.46366 0 0 0 0
2703 1 1 22.14 17.04338 0 0 0 0
2042 1 1 23.37 16.33324 0 0 0 0
2050 1 1 25.83 16.33324 0 0 0 0
2698 1 1 23.37 20.59408 0 0 0 0
2704 1 1 23.37 19.1738 0 0 0 0
2705 1 1 24.6 18.46366 0 0 0 0
2706 1 1 25.83 20.59408 0 0 0 0
2711 1 1 24.6 17.04338 0 0 0 0
2712 1 1 25.83 19.1738 0 0 0 0
2713 1 1 27.06 18.46366 0 0 0 0
2719 1 1 27.06 17.04338 0 0 0 0
2058 1 1 28.29 16.33324 0 0 0 0
2066 1 1 30.75 16.33324 0 0 0 0
2074 1 1 33.21 16.33324 0 0 0 0
2714 1 1 28.29 20.59408 0 0 0 0
2720 1 1 28.29 19.1738 0 0 0 0
2721 1 1 29.52 18.46366 0 0 0 0
2722 1 1 30.75 20.59408 0 0 0 0
2727 1 1 29.52 17.04338 0 0 0 0
2728 1 1 30.75 19.1738 0 0 0 0
2729 1 1 31.98 18.46366 0 0 0 0
2730 1 1 33.21 20.59408 0 0 0 0
2735 1 1 31.98 17.04338 0 0 0 0
2736 1 1 33.21 19.1738 0 0 0 0
2082 1 1 35.67 16.33324 0 0 0 0
2090 1 1 38.13 16.33324 0 0 0 0
2737 1 1 34.44 18.46366 0 0 0 0
2738 1 1 35.67 20.59408 0 0 0 0
2743 1 1 34.44 17.04338 0 0 0 0
2744 1 1 35.67 19.1738 0 0 0 0
2745 1 1 36.9 18.46366 0 0 0 0
2746 1 1 38.13 20.59408 0 0 0 0
2751 1 1 36.9 17.04338 0 0 0 0
2752 1 1 38.13 19.1738 0 0 0 0
2098 1 1 40.59 16.33324 0 0 0 0
2106 1 1 43.05 16.33324 0 0 0 0
2753 1 1 39.36 18.46366 0 0 0 0
2754 1 1 40.59 20.59408 0 0 0 0
2759 1 1 39.36 17.04338 0 0 0 0
2760 1 1 40.59 19.1738 0 0 0 0
2761 1 1 41.82 18.46366 0 0 0 0
2762 1 1 43.05 20.59408 0 0 0 0
2767 1 1 41.82 17.04338 0 0 0 0
2768 1 1 43.05 19.1738 0 0 0 0
2769 1 1 44.28 18.46366 0 0 0 0
2775 1 1 44.28 17.04338 0 0 0 0
2114 1 1 45.51 16.33324 0 0 0 0
2122 1 1 47.97 16.33324 0 0 0 0
2770 1 1 45.51 20.59408 0 0 0 0
2776 1 1 45.51 19.1738 0 0 0 0
2777 1 1 46.74 18.46366 0 0 0 0
2778 1 1 47.97 20.59408 0 0 0 0
2783 1 1 46.74 17.04338 0 0 0 0
2784 1 1 47.97 19.1738 0 0 0 0
2785 1 1 49.2 18.46366 0 0 0 0
2791 1 1 49.2 17.04338 0 0 0 0
3281 1 1 0 22.72451 0 0 0 0
3282 1 1 1.23 24.85493 0 0 0 0
3287 1 1 0 21.30422 0 0 0 0
3288 1 1 1.23 23.43465 0 0 0 0
3289 1 1 2.46 22.72451 0 0 0 0
3290 1 1 3.69 24.85493 0 0 0 0
3295 1 1 2.46 21.30422 0 0 0 0
3296 1 1 3.69 23.43465 0 0 0 0
3297 1 1 4.92 22.72451 0 0 0 0
3303 1 1 4.92 21.30422 0 0 0 0
3943 1 1 0 25.56507 0 0 0 0
3951 1 1 2.46 25.56507 0 0 0 0
3959 1 1 4.92 25.56507 0 0 0 0
3298 1 1 6.15 24.85493 0 0 0 0
3304 1 1 6.15 23.43465 0 0 0 0
3305 1 1 7.38 22.72451 0 0 0 0
3306 1 1 8.61 24.85493 0 0 0 0
3311 1 1 7.38 21.30422 0 0 0 0
3312 1 1 8.61 23.43465 0 0 0 0
3313 1 1 9.84 22.72451 0 0 0 0
3314 1 1 11.07 24.85493 0 0 0 0
3319 1 1 9.84 21.30422 0 0 0 0
3320 1 1 11.07 23.43465 0 0 0 0
3967 1 1 7.38 25.56507 0 0 0 0
3975 1 1 9.84 25.56507 0 0 0 0
3321 1 1 12.3 22.72451 0 0 0 0
3322 1 1 13.53 24.85493 0 0 0 0
3327 1 1 12.3 21.30422 0 0 0 0
3328 1 1 13.53 23.43465 0 0 0 0
3329 1 1 14.76 22.72451 0 0 0 0
3330 1 1 15.99 24.85493 0 0 0 0
3335 1 1 14.76 21.30422 0 0 0 0
3336 1 1 15.99 23.43465 0 0 0 0
3983 1 1 12.3 25.56507 0 0 0 0
3991 1 1 14.76 25.56507 0 0 0 0
3337 1 1 17.22 22.72451 0 0 0 0
3338 1 1 18.45 24.85493 0 0 0 0
3343 1 1 17.22 21.30422 0 0 0 0
3344 1 1 18.45 23.43465 0 0 0 0
3345 1 1 19.68 22.72451 0 0 0 0
3346 1 1 20.91 24.85493 0 0 0 0
3351 1 1 19.68 21.30422 0 0 0 0
3352 1 1 20.91 23.43465 0 0 0 0
3353 1 1 22.14 22.72451 0 0 0 0
3359 1 1 22.14 21.30422 0 0 0 0
3999 1 1 17.22 25.56507 0 0 0 0
4007 1 1 19.68 25.56507 0 0 0 0
4015 1 1 22.14 25.56507 0 0 0 0
3354 1 1 23.37 24.85493 0 0 0 0
3360 1 1 23.37 23.43465 0 0 0 0
3361 1 1 24.6 22.72451 0 0 0 0
3362 1 1 25.83 24.85493 0 0 0 0
3367 1 1 24.6 21.30422 0 0 0 0
3368 1 1 25.83 23.43465 0 0 0 0
3369 1 1 27.06 22.72451 0 0 0 0
3375 1 1 27.06 21.30422 0 0 0 0
4023 1 1 24.6 25.56507 0 0 0 0
4031 1 1 27.06 25.56507 0 0 0 0
3370 1 1 28.29 24.85493 0 0 0 0
3376 1 1 28.29 23.43465 0 0 0 0
3377 1 1 29.52 22.72451 0 0 0 0
3378 1 1 30.75 24.85493 0 0 0 0
3383 1 1 29.52 21.30422 0 0 0 0
3384 1 1 30.75 23.43465 0 0 0 0
3385 1 1 31.98 22.72451 0 0 0 0
3386 1 1 33.21 24.85493 0 0 0 0
3391 1 1 31.98 21.30422 0 0 0 0
3392 1 1 33.21 23.43465 0 0 0 0
4039 1 1 29.52 25.56507 0 0 0 0
4047 1 1 31.98 25.56507 0 0 0 0
3393 1 1 34.44 22.72451 0 0 0 0
3394 1 1 35.67 24.85493 0 0 0 0
3399 1 1 34.44 21.30422 0 0 0 0
3400 1 1 35.67 23.43465 0 0 0 0
3401 1 1 36.9 22.72451 0 0 0 0
3402 1 1 38.13 24.85493 0 0 0 0
3407 1 1 36.9 21.30422 0 0 0 0
3408 1 1 38.13 23.43465 0 0 0 0
4055 1 1 34.44 25.56507 0 0 0 0
4063 1 1 36.9 25.56507 0 0 0 0
3409 1 1 39.36 22.72451 0 0 0 0
3410 1 1 40.59 24.85493 0 0 0 0
3415 1 1 39.36 21.30422 0 0 0 0
3416 1 1 40.59 23.43465 0 0 0 0
3417 1 1 41.82 22.72451 0 0 0 0
3418 1 1 43.05 24.85493 0 0 0 0
3423 1 1 41.82 21.30422 0 0 0 0
3424 1 1 43.05 23.43465 0 0 0 0
3425 1 1 44.28 22.72451 0 0 0 0
3431 1 1 44.28 21.30422 0 0 0 0
4071 1 1 39.36 25.56507 0 0 0 0
4079 1 1 41.82 25.56507 0 0 0 0
4087 1 1 44.28 25.56507 0 0 0 0
3426 1 1 45.51 24.85493 0 0 0 0
3432 1 1 45.51 23.43465 0 0 0 0
3433 1 1 46.74 22.72451 0 0 0 0
3434 1 1 47.97 24.85493 0 0 0 0
3439 1 1 46.74 21.30422 0 0 0 0
3440 1 1 47.97 23.43465 0 0 0 0
3441 1 1 49.2 22.72451 0 0 0 0
3447 1 1 49.2 21.30422 0 0 0 0
4095 1 1 46.74 25.56507 0 0 0 0
4103 1 1 49.2 25.56507 0 0 0 0
3937 1 1 0 26.98535 0 0 0 0
3938 1 1 1.23 29.11577 0 0 0 0
3944 1 1 1.23 27.69549 0 0 0 0
3945 1 1 2.46 26.98535 0 0 0 0
3946 1 1 3.69 29.11577 0 0 0 0
3952 1 1 3.69 27.69549 0 0 0 0
3953 1 1 4.92 26.98535 0 0 0 0
4593 1 1 0 31.2462 0 0 0 0
4599 1 1 0 29.82591 0 0 0 0
4601 1 1 2.46 31.2462 0 0 0 0
4607 1 1 2.46 29.82591 0 0 0 0
4609 1 1 4.92 31.2462 0 0 0 0
4615 1 1 4.92 29.82591 0 0 0 0
3954 1 1 6.15 29.11577 0 0 0 0
3960 1 1 6.15 27.69549 0 0 0 0
3961 1 1 7.38 26.98535 0 0 0 0
3962 1 1 8.61 29.11577 0 0 0 0
3968 1 1 8.61 27.69549 0 0 0 0
3969 1 1 9.84 26.98535 0 0 0 0
3970 1 1 11.07 29.11577 0 0 0 0
3976 1 1 11.07 27.69549 0 0 0 0
4617 1 1 7.38 31.2462 0 0 0 0
4623 1 1 7.38 29.82591 0 0 0 0
4625 1 1 9.84 31.2462 0 0 0 0
4631 1 1 9.84 29.82591 0 0 0 0
3977 1 1 12.3 26.98535 0 0 0 0
3978 1 1 13.53 29.11577 0 0 0 0
3984 1 1 13.53 27.69549 0 0 0 0
3985 1 1 14.76 26.98535 0 0 0 0
3986 1 1 15.99 29.11577 0 0 0 0
3992 1 1 15.99 27.69549 0 0 0 0
4633 1 1 12.3 31.2462 0 0 0 0
4639 1 1 12.3 29.82591 0 0 0 0
4641 1 1 14.76 31.2462 0 0 0 0
4647 1 1 14.76 29.82591 0 0 0 0
3993 1 1 17.22 26.98535 0 0 0 0
3994 1 1 18.45 29.11577 0 0 0 0
4000 1 1 18.45 27.69549 0 0 0 0
4001 1 1 19.68 26.98535 0 0 0 0
4002 1 1 20.91 29.11577 0 0 0 0
4008 1 1 20.91 27.69549 0 0 0 0
4009 1 1 22.14 26.98535 0 0 0 0
4649 1 1 17.22 31.2462 0 0 0 0
4655 1 1 17.22 29.82591 0 0 0 0
4657 1 1 19.68 31.2462 0 0 0 0
4663 1 1 19.68 29.82591 0 0 0 0
4665 1 1 22.14 31.2462 0 0 0 0
4671 1 1 22.14 29.82591 0 0 0 0
4010 1 1 23.37 29.11577 0 0 0 0
4016 1 1 23.37 27.69549 0 0 0 0
4017 1 1 24.6 26.98535 0 0 0 0
4018 1 1 25.83 29.11577 0 0 0 0
4024 1 1 25.83 27.69549 0 0 0 0
4025 1 1 27.06 26.98535 0 0 0 0
4673 1 1 24.6 31.2462 0 0 0 0
4679 1 1 24.6 29.82591 0 0 0 0
4681 1 1 27.06 31.2462 0 0 0 0
4687 1 1 27.06 29.82591 0 0 0 0
4026 1 1 28.29 29.11577 0 0 0 0
4032 1 1 28.29 27.69549 0 0 0 0
4033 1 1 29.52 26.98535 0 0 0 0
4034 1 1 30.75 29.11577 0 0 0 0
4040 1 1 30.75 27.69549 0 0 0 0
4041 1 1 31.98 26.98535 0 0 0 0
4042 1 1 33.21 29.11577 0 0 0 0
4048 1 1 33.21 27.69549 0 0 0 0
4689 1 1 29.52 31.2462 0 0 0 0
4695 1 1 29.52 29.82591 0 0 0 0
4697 1 1 31.98 31.2462 0 0 0 0
4703 1 1 31.98 29.82591 0 0 0 0
4049 1 1 34.44 26.98535 0 0 0 0
4050 1 1 35.67 29.11577 0 0 0 0
4056 1 1 35.67 27.69549 0 0 0 0
4057 1 1 36.9 26.98535 0 0 0 0
4058 1 1 38.13 29.11577 0 0 0 0
4064 1 1 38.13 27.69549 0 0 0 0
4705 1 1 34.44 31.2462 0 0 0 0
4711 1 1 34.44 29.82591 0 0 0 0
4713 1 1 36.9 31.2462 0 0 0 0
4719 1 1 36.9 29.82591 0 0 0 0
4065 1 1 39.36 26.98535 0 0 0 0
4066 1 1 40.59 29.11577 0 0 0 0
4072 1 1 40.59 27.69549 0 0 0 0
4073 1 1 41.82 26.98535 0 0 0 0
4074 1 1 43.05 29.11577 0 0 0 0
4080 1 1 43.05 27.69549 0 0 0 0
4081 1 1 44.28 26.98535 0 0 0 0
4721 1 1 39.36 31.2462 0 0 0 0
4727 1 1 39.36 29.82591 0 0 0 0
4729 1 1 41.82 31.2462 0 0 0 0
4735 1 1 41.82 29.82591 0 0 0 0
4737 1 1 44.28 31.2462 0 0 0 0
4743 1 1 44.28 29.82591 0 0 0 0
4082 1 1 45.51 29.11577 0 0 0 0
4088 1 1 45.51 27.69549 0 0 0 0
4089 1 1 46.74 26.98535 0 0 0 0
4090 1 1 47.97 29.11577 0 0 0 0
4096 1 1 47.97 27.69549 0 0 0 0
4097 1 1 49.2 26.98535 0 0 0 0
4745 1 1 46.74 31.2462 0 0 0 0
4751 1 1 46.74 29.82591 0 0 0 0
4753 1 1 49.2 31.2462 0 0 0 0
4759 1 1 49.2 29.82591 0 0 0 0
4594 1 1 1.23 33.37662 0 0 0 0
4600 1 1 1.23 31.95634 0 0 0 0
4602 1 1 3.69 33.37662 0 0 0 0
4608 1 1 3.69 31.95634 0 0 0 0
5249 1 1 0 35.50704 0 0 0 0
5255 1 1 0 34.08676 0 0 0 0
5256 1 1 1.23 36.21718 0 0 0 0
5257 1 1 2.46 35.50704 0 0 0 0
5263 1 1 2.46 34.08676 0 0 0 0
5264 1 1 3.69 36.21718 0 0 0 0
5265 1 1 4.92 35.50704 0 0 0 0
5271 1 1 4.92 34.08676 0 0 0 0
4610 1 1 6.15 33.37662 0 0 0 0
4616 1 1 6.15 31.95634 0 0 0 0
4618 1 1 8.61 33.37662 0 0 0 0
4624 1 1 8.61 31.95634 0 0 0 0
4626 1 1 11.07 33.37662 0 0 0 0
4632 1 1 11.07 31.95634 0 0 0 0
5272 1 1 6.15 36.21718 0 0 0 0
5273 1 1 7.38 35.50704 0 0 0 0
5279 1 1 7.38 34.08676 0 0 0 0
5280 1 1 8.61 36.21718 0 0 0 0
5281 1 1 9.84 35.50704 0 0 0 0
5287 1 1 9.84 34.08676 0 0 0 0
5288 1 1 11.07 36.21718 0 0 0 0
4634 1 1 13.53 33.37662 0 0 0 0
4640 1 1 13.53 31.95634 0 0 0 0
4642 1 1 15.99 33.37662 0 0 0 0
4648 1 1 15.99 31.95634 0 0 0 0
5289 1 1 12.3 35.50704 0 0 0 0
5295 1 1 12.3 34.08676 0 0 0 0
5296 1 1 13.53 36.21718 0 0 0 0
5297 1 1 14.76 35.50704 0 0 0 0
5303 1 1 14.76 34.08676 0 0 0 0
5304 1 1 15.99 36.21718 0 0 0 0
4650 1 1 18.45 33.37662 0 0 0 0
4656 1 1 18.45 31.95634 0 0 0 0
4658 1 1 20.91 33.37662 0 0 0 0
4664 1 1 20.91 31.95634 0 0 0 0
5305 1 1 17.22 35.50704 0 0 0 0
5311 1 1 17.22 34.08676 0 0 0 0
5312 1 1 18.45 36.21718 0 0 0 0
5313 1 1 19.68 35.50704 0 0 0 0
5319 1 1 19.68 34.08676 0 0 0 0
5320 1 1 20.91 36.21718 0 0 0 0
5321 1 1 22.14 35.50704 0 0 0 0
5327 1 1 22.14 34.08676 0 0 0 0
4666 1 1 23.37 33.37662 0 0 0 0
4672 1 1 23.37 31.95634 0 0 0 0
4674 1 1 25.83 33.37662 0 0 0 0
4680 1 1 25.83 31.95634 0 0 0 0
5328 1 1 23.37 36.21718 0 0 0 0
5329 1 1 24.6 35.50704 0 0 0 0
5335 1 1 24.6 34.08676 0 0 0 0
5336 1 1 25.83 36.21718 0 0 0 0
5337 1 1 27.06 35.50704 0 0 0 0
5343 1 1 27.06 34.08676 0 0 0 0
4682 1 1 28.29 33.37662 0 0 0 0
4688 1 1 28.29 31.95634 0 0 0 0
4690 1 1 30.75 33.37662 0 0 0 0
4696 1 1 30.75 31.95634 0 0 0 0
4698 1 1 33.21 33.37662 0 0 0 0
4704 1 1 33.21 31.95634 0 0 0 0
5344 1 1 28.29 36.21718 0 0 0 0
5345 1 1 29.52 35.50704 0 0 0 0
5351 1 1 29.52 34.08676 0 0 0 0
5352 1 1 30.75 36.21718 0 0 0 0
5353 1 1 31.98 35.50704 0 0 0 0
5359 1 1 31.98 34.08676 0 0 0 0
5360 1 1 33.21 36.21718 0 0 0 0
4706 1 1 35.67 33.37662 0 0 0 0
4712 1 1 35.67 31.95634 0 0 0 0
4714 1 1 38.13 33.37662 0 0 0 0
4720 1 1 38.13 31.95634 0 0 0 0
5361 1 1 34.44 35.50704 0 0 0 0
5367 1 1 34.44 34.08676 0 0 0 0
5368 1 1 35.67 36.21718 0 0 0 0
5369 1 1 36.9 35.50704 0 0 0 0
5375 1 1 36.9 34.08676 0 0 0 0
5376 1 1 38.13 36.21718 0 0 0 0
4722 1 1 40.59 33.37662 0 0 0 0
4728 1 1 40.59 31.95634 0 0 0 0
4730 1 1 43.05 33.37662 0 0 0 0
4736 1 1 43.05 31.95634 0 0 0 0
5377 1 1 39.36 35.50704 0 0 0 0
5383 1 1 39.36 34.08676 0 0 0 0
5384 1 1 40.59 36.21718 0 0 0 0
5385 1 1 41.82 35.50704 0 0 0 0
5391 1 1 41.82 34.08676 0 0 0 0
5392 1 1 43.05 36.21718 0 0 0 0
5393 1 1 44.28 35.50704 0 0 0 0
5399 1 1 44.28 34.08676 0 0 0 0
4738 1 1 45.51 33.37662 0 0 0 0
4744 1 1 45.51 31.95634 0 0 0 0
4746 1 1 47.97 33.37662 0 0 0 0
4752 1 1 47.97 31.95634 0 0 0 0
5400 1 1 45.51 36.21718 0 0 0 0
5401 1 1 46.74 35.50704 0 0 0 0
5407 1 1 46.74 34.08676 0 0 0 0
5408 1 1 47.97 36.21718 0 0 0 0
5409 1 1 49.2 35.50704 0 0 0 0
5415 1 1 49.2 34.08676 0 0 0 0
5250 1 1 1.23 37.63746 0 0 0 0
5258 1 1 3.69 37.63746 0 0 0 0
5905 1 1 0 39.76789 0 0 0 0
5906 1 1 1.23 41.89831 0 0 0 0
5911 1 1 0 38.3476 0 0 0 0
5912 1 1 1.23 40.47803 0 0 0 0
5913 1 1 2.46 39.76789 0 0 0 0
5914 1 1 3.69 41.89831 0 0 0 0
5919 1 1 2.46 38.3476 0 0 0 0
5920 1 1 3.69 40.47803 0 0 0 0
5921 1 1 4.92 39.76789 0 0 0 0
5927 1 1 4.92 38.3476 0 0 0 0
5266 1 1 6.15 37.63746 0 0 0 0
5274 1 1 8.61 37.63746 0 0 0 0
5282 1 1 11.07 37.63746 0 0 0 0
5922 1 1 6.15 41.89831 0 0 0 0
5928 1 1 6.15 40.47803 0 0 0 0
5929 1 1 7.38 39.76789 0 0 0 0
5930 1 1 8.61 41.89831 0 0 0 0
5935 1 1 7.38 38.3476 0 0 0 0
5936 1 1 8.61 40.47803 0 0 0 0
5937 1 1 9.84 39.76789 0 0 0 0
5938 1 1 11.07 41.89831 0 0 0 0
5943 1 1 9.84 38.3476 0 0 0 0
5944 1 1 11.07 40.47803 0 0 0 0
5290 1 1 13.53 37.63746 0 0 0 0
5298 1 1 15.99 37.63746 0 0 0 0
5945 1 1 12.3 39.76789 0 0 0 0
5946 1 1 13.53 41.89831 0 0 0 0
5951 1 1 12.3 38.3476 0 0 0 0
5952 1 1 13.53 40.47803 0 0 0 0
5953 1 1 14.76 39.76789 0 0 0 0
5954 1 1 15.99 41.89831 0 0 0 0
5959 1 1 14.76 38.3476 0 0 0 0
5960 1 1 15.99 40.47803 0 0 0 0
5306 1 1 18.45 37.63746 0 0 0 0
5314 1 1 20.91 37.63746 0 0 0 0
5961 1 1 17.22 39.76789 0 0 0 0
5962 1 1 18.45 41.89831 0 0 0 0
5967 1 1 17.22 38.3476 0 0 0 0
5968 1 1 18.45 40.47803 0 0 0 0
5969 1 1 19.68 39.76789 0 0 0 0
5970 1 1 20.91 41.89831 0 0 0 0
5975 1 1 19.68 38.3476 0 0 0 0
5976 1 1 20.91 40.47803 0 0 0 0
5977 1 1 22.14 39.76789 0 0 0 0
5983 1 1 22.14 38.3476 0 0 0 0
5322 1 1 23.37 37.63746 0 0 0 0
5330 1 1 25.83 37.63746 0 0 0 0
5978 1 1 23.37 41.89831 0 0 0 0
5984 1 1 23.37 40.47803 0 0 0 0
5985 1 1 24.6 39.76789 0 0 0 0
5986 1 1 25.83 41.89831 0 0 0 0
5991 1 1 24.6 38.3476 0 0 0 0
5992 1 1 25.83 40.47803 0 0 0 0
5993 1 1 27.06 39.76789 0 0 0 0
5999 1 1 27.06 38.3476 0 0 0 0
5338 1 1 28.29 37.63746 0 0 0 0
5346 1 1 30.75 37.63746 0 0 0 0
5354 1 1 33.21 37.63746 0 0 0 0
5994 1 1 28.29 41.89831 0 0 0 0
6000 1 1 28.29 40.47803 0 0 0 0
6001 1 1 29.52 39.76789 0 0 0 0
6002 1 1 30.75 41.89831 0 0 0 0
6007 1 1 29.52 38.3476 0 0 0 0
6008 1 1 30.75 40.47803 0 0 0 0
6009 1 1 31.98 39.76789 0 0 0 0
6010 1 1 33.21 41.89831 0 0 0 0
6015 1 1 31.98 38.3476 0 0 0 0
6016 1 1 33.21 40.47803 0 0 0 0
5362 1 1 35.67 37.63746 0 0 0 0
5370 1 1 38.13 37.63746 0 0 0 0
6017 1 1 34.44 39.76789 0 0 0 0
6018 1 1 35.67 41.89831 0 0 0 0
6023 1 1 34.44 38.3476 0 0 0 0
6024 1 1 35.67 40.47803 0 0 0 0
6025 1 1 36.9 39.76789 0 0 0 0
6026 1 1 38.13 41.89831 0 0 0 0
6031 1 1 36.9 38.3476 0 0 0 0
6032 1 1 38.13 40.47803 0 0 0 0
5378 1 1 40.59 37.63746 0 0 0 0
5386 1 1 43.05 37.63746 0 0 0 0
6033 1 1 39.36 39.76789 0 0 0 0
6034 1 1 40.59 41.89831 0 0 0 0
6039 1 1 39.36 38.3476 0 0 0 0
6040 1 1 40.59 40.47803 0 0 0 0
6041 1 1 41.82 39.76789 0 0 0 0
6042 1 1 43.05 41.89831 0 0 0 0
6047 1 1 41.82 38.3476 0 0 0 0
6048 1 1 43.05 40.47803 0 0 0 0
6049 1 1 44.28 39.76789 0 0 0 0
6055 1 1 44.28 38.3476 0 0 0 0
5394 1 1 45.51 37.63746 0 0 0 0
5402 1 1 47.97 37.63746 0 0 0 0
6050 1 1 45.51 41.89831 0 0 0 0
6056 1 1 45.51 40.47803 0 0 0 0
6057 1 1 46.74 39.76789 0 0 0 0
6058 1 1 47.97 41.89831 0 0 0 0
6063 1 1 46.74 38.3476 0 0 0 0
6064 1 1 47.97 40.47803 0 0 0 0
6065 1 1 49.2 39.76789 0 0 0 0
6071 1 1 49.2 38.3476 0 0 0 0
6561 1 1 0 44.02873 0 0 0 0
6562 1 1 1.23 46.15915 0 0 0 0
6567 1 1 0 42.60845 0 0 0 0
6568 1 1 1.23 44.73887 0 0 0 0
6569 1 1 2.46 44.02873 0 0 0 0
6570 1 1 3.69 46.15915 0 0 0 0
6575 1 1 2.46 42.60845 0 0 0 0
6576 1 1 3.69 44.73887 0 0 0 0
6577 1 1 4.92 44.02873 0 0 0 0
6583 1 1 4.92 42.60845 0 0 0 0
7223 1 1 0 46.86929 0 0 0 0
7231 1 1 2.46 46.86929 0 0 0 0
7239 1 1 4.92 46.86929 0 0 0 0
6578 1 1 6.15 46.15915 0 0 0 0
6584 1 1 6.15 44.73887 0 0 0 0
6585 1 1 7.38 44.02873 0 0 0 0
6586 1 1 8.61 46.15915 0 0 0 0
6591 1 1 7.38 42.60845 0 0 0 0
6592 1 1 8.61 44.73887 0 0 0 0
6593 1 1 9.84 44.02873 0 0 0 0
6594 1 1 11.07 46.15915 0 0 0 0
6599 1 1 9.84 42.60845 0 0 0 0
6600 1 1 11.07 44.73887 0 0 0 0
7247 1 1 7.38 46.86929 0 0 0 0
7255 1 1 9.84 46.86929 0 0 0 0
6601 1 1 12.3 44.02873 0 0 0 0
6602 1 1 13.53 46.15915 0 0 0 0
6607 1 1 12.3 42.60845 0 0 0 0
6608 1 1 13.53 44.73887 0 0 0 0
6609 1 1 14.76 44.02873 0 0 0 0
6610 1 1 15.99 46.15915 0 0 0 0
6615 1 1 14.76 42.60845 0 0 0 0
6616 1 1 15.99 44.73887 0 0 0 0
7263 1 1 12.3 46.86929 0 0 0 0
7271 1 1 14.76 46.86929 0 0 0 0
6617 1 1 17.22 44.02873 0 0 0 0
6618 1 1 18.45 46.15915 0 0 0 0
6623 1 1 17.22 42.60845 0 0 0 0
6624 1 1 18.45 44.73887 0 0 0 0
6625 1 1 19.68 44.02873 0 0 0 0
6626 1 1 20.91 46.15915 0 0 0 0
6631 1 1 19.68 42.60845 0 0 0 0
6632 1 1 20.91 44.73887 0 0 0 0
6633 1 1 22.14 44.02873 0 0 0 0
6639 1 1 22.14 42.60845 0 0 0 0
7279 1 1 17.22 46.86929 0 0 0 0
7287 1 1 19.68 46.86929 0 0 0 0
7295 1 1 22.14 46.86929 0 0 0 0
6634 1 1 23.37 46.15915 0 0 0 0
6640 1 1 23.37 44.73887 0 0 0 0
6641 1 1 24.6 44.02873 0 0 0 0
6642 1 1 25.83 46.15915 0 0 0 0
6647 1 1 24.6 42.60845 0 0 0 0
6648 1 1 25.83 44.73887 0 0 0 0
6649 1 1 27.06 44.02873 0 0 0 0
6655 1 1 27.06 42.60845 0 0 0 0
7303 1 1 24.6 46.86929 0 0 0 0
7311 1 1 27.06 46.86929 0 0 0 0
6650 1 1 28.29 46.15915 0 0 0 0
6656 1 1 28.29 44.73887 0 0 0 0
6657 1 1 29.52 44.02873 0 0 0 0
6658 1 1 30.75 46.15915 0 0 0 0
6663 1 1 29.52 42.60845 0 0 0 0
6664 1 1 30.75 44.73887 0 0 0 0
6665 1 1 31.98 44.02873 0 0 0 0
6666 1 1 33.21 46.15915 0 0 0 0
6671 1 1 31.98 42.60845 0 0 0 0
6672 1 1 33.21 44.73887 0 0 0 0
7319 1 1 29.52 46.86929 0 0 0 0
7327 1 1 31.98 46.86929 0 0 0 0
6673 1 1 34.44 44.02873 0 0 0 0
6674 1 1 35.67 46.15915 0 0 0 0
6679 1 1 34.44 42.60845 0 0 0 0
6680 1 1 35.67 44.73887 0 0 0 0
6681 1 1 36.9 44.02873 0 0 0 0
6682 1 1 38.13 46.15915 0 0 0 0
6687 1 1 36.9 42.60845 0 0 0 0
6688 1 1 38.13 44.73887 0 0 0 0
7335 1 1 34.44 46.86929 0 0 0 0
7343 1 1 36.9 46.86929 0 0 0 0
6689 1 1 39.36 44.02873 0 0 0 0
6690 1 1 40.59 46.15915 0 0 0 0
6695 1 1 39.36 42.60845 0 0 0 0
6696 1 1 40.59 44.73887 0 0 0 0
6697 1 1 41.82 44.02873 0 0 0 0
6698 1 1 43.05 46.15915 0 0 0 0
6703 1 1 41.82 42.60845 0 0 0 0
6704 1 1 43.05 44.73887 0 0 0 0
6705 1 1 44.28 44.02873 0 0 0 0
6711 1 1 44.28 42.60845 0 0 0 0
7351 1 1 39.36 46.86929 0 0 0 0
7359 1 1 41.82 46.86929 0 0 0 0
7367 1 1 44.28 46.86929 0 0 0 0
6706 1 1 45.51 46.15915 0 0 0 0
6712 1 1 45.51 44.73887 0 0 0 0
6713 1 1 46.74 44.02873 0 0 0 0
6714 1 1 47.97 46.15915 0 0 0 0
6719 1 1 46.74 42.60845 0 0 0 0
6720 1 1 47.97 44.73887 0 0 0 0
6721 1 1 49.2 44.02873 0 0 0 0
6727 1 1 49.2 42.60845 0 0 0 0
7375 1 1 46.74 46.86929 0 0 0 0
7383 1 1 49.2 46.86929 0 0 0 0
7217 1 1 0 48.28958 0 0 0 0
7218 1 1 1.23 50.42 0 0 0 0
7224 1 1 1.23 48.99972 0 0 0 0
7225 1 1 2.46 48.28958 0 0 0 0
7226 1 1 3.69 50.42 0 0 0 0
7232 1 1 3.69 48.99972 0 0 0 0
7233 1 1 4.92 48.28958 0 0 0 0
7234 1 1 6.15 50.42 0 0 0 0
7240 1 1 6.15 48.99972 0 0 0 0
7241 1 1 7.38 48.28958 0 0 0 0
7242 1 1 8.61 50.42 0 0 0 0
7248 1 1 8.61 48.99972 0 0 0 0
7249 1 1 9.84 48.28958 0 0 0 0
7250 1 1 11.07 50.42 0 0 0 0
7256 1 1 11.07 48.99972 0 0 0 0
7257 1 1 12.3 48.28958 0 0 0 0
7258 1 1 13.53 50.42 0 0 0 0
7264 1 1 13.53 48.99972 0 0 0 0
7265 1 1 14.76 48.28958 0 0 0 0
7266 1 1 15.99 50.42 0 0 0 0
7272 1 1 15.99 48.99972 0 0 0 0
7273 1 1 17.22 48.28958 0 0 0 0
7274 1 1 18.45 50.42 0 0 0 0
7280 1 1 18.45 48.99972 0 0 0 0
7281 1 1 19.68 48.28958 0 0 0 0
7282 1 1 20.91 50.42 0 0 0 0
7288 1 1 20.91 48.99972 0 0 0 0
7289 1 1 22.14 48.28958 0 0 0 0
7290 1 1 23.37 50.42 0 0 0 0
7296 1 1 23.37 48.99972 0 0 0 0
7297 1 1 24.6 48.28958 0 0 0 0
7298 1 1 25.83 50.42 0 0 0 0
7304 1 1 25.83 48.99972 0 0 0 0
7305 1 1 27.06 48.28958 0 0 0 0
7306 1 1 28.29 50.42 0 0 0 0
7312 1 1 28.29 48.99972 0 0 0 0
7313 1 1 29.52 48.28958 0 0 0 0
7314 1 1 30.75 50.42 0 0 0 0
7320 1 1 30.75 48.99972 0 0 0 0