LAMMPS data file via write_data, version 29 Aug 2024, timestep = 10000, units = metal

24960 atoms
6 atom types

-2.4813996795199387 405.921399679515 xlo xhi
-4.626553854333032 56.626553854333366 ylo yhi
-12 24 zlo zhi

Masses

1 12.011
2 12.011
3 12.011
4 12.011
5 12.011
6 12.011

Atoms # molecular

23 1 1 2.6174332031872725 -0.24981654017439503 -0.449995531737148 0 0 0
15 1 1 0.1361045288881999 -0.27079213309296346 -0.100542184323972 0 0 0
39 1 1 7.614041593706199 -0.2529427255646626 -0.4552114670475085 0 0 0
31 1 1 5.117431698345954 -0.2545598506486533 -0.4376867427488538 0 0 0
47 1 1 10.110501749835363 -0.24845517125400196 -0.48802667243519515 0 0 0
55 1 1 12.607926828140348 -0.24337184160176406 -0.4991198362665017 0 0 0
63 1 1 15.100727889228423 -0.25072002197192056 -0.33415802656745086 0 0 0
87 1 1 22.584290875760367 -0.24620256530572782 -0.0933955272580036 0 0 0
79 1 1 20.09047236170389 -0.24753036049372046 -0.1934808490232225 0 0 0
95 1 1 25.075671581258526 -0.24609826345926766 0.06370051437892421 0 0 0
103 1 1 27.56867385405306 -0.2433081496667553 0.20023279815178618 0 0 0
111 1 1 30.06509503108854 -0.23902505637652016 0.1825297658250502 0 0 0
127 1 1 35.06069082803995 -0.22625616332507015 0.09480844658432552 0 0 0
143 1 1 40.037966366414366 -0.19302263704870803 -0.4365478664302316 0 0 0
135 1 1 37.54406032961566 -0.21019311414720399 -0.23385601628274166 0 0 0
151 1 1 42.52821844900919 -0.16354605038438663 -0.7064981337707792 0 0 0
159 1 1 45.02283301033732 -0.121590522732002 -0.9741056796160432 0 0 0
167 1 1 47.53184204875435 -0.09392691432774747 -1.067172587205608 0 0 0
175 1 1 50.039872449429424 -0.09679105307858915 -0.9337993593329941 0 0 0
183 1 1 52.520836438518536 -0.1334189873361291 -0.5490016640413575 0 0 0
191 1 1 55.00489721676792 -0.1498001984343773 -0.21820914452489149 0 0 0
199 1 1 57.467808468334084 -0.17575019819877102 0.24696644988377692 0 0 0
327 1 1 97.12363007188122 -0.1180536970894508 -0.31082837361816473 0 0 0
17 1 1 2.6219459169259878 1.0932295295941152 -0.28268750852942226 0 0 0
9 1 1 0.13399676112778858 1.0824975462695638 -0.07806930094125519 0 0 0
16 1 1 1.3783496365365098 1.8158955125645475 -0.13902969347985739 0 0 0
679 1 1 2.6248403100317015 3.971406927319256 -0.07958980877057442 0 0 0
10 1 1 1.378464862202848 3.2514465309291927 -0.0661990756166233 0 0 0
673 1 1 2.6242611741987396 5.409092468373268 -0.02970291049207674 0 0 0
8 1 1 -1.1128133819221568 1.8103114874666115 -0.0027233376474615767 0 0 0
671 1 1 0.13218708640609345 3.967850308323502 0.003333738117259344 0 0 0
32 1 1 6.365480893074185 1.8237530220323883 -0.29036931890247075 0 0 0
33 1 1 7.613391585176021 1.096789369325026 -0.35319186009186154 0 0 0
24 1 1 3.8705685029858294 1.8213191591439202 -0.2510726974036679 0 0 0
25 1 1 5.117730893011309 1.0944717460669313 -0.3270952467335615 0 0 0
18 1 1 3.871242081227453 3.2554196276993013 -0.15245682113438974 0 0 0
26 1 1 6.365165669005737 3.2582445431145333 -0.1977205040585499 0 0 0
687 1 1 5.118064767548385 3.9745955872511427 -0.14148325083605684 0 0 0
695 1 1 7.611893865202063 3.9773435454046346 -0.17453376391901898 0 0 0
689 1 1 7.610897068182744 5.41468770305883 -0.11349335031914265 0 0 0
680 1 1 3.870461079266117 6.128873696669306 -0.037921795573108596 0 0 0
681 1 1 5.117402218591423 5.4119802382603 -0.08180626288058868 0 0 0
688 1 1 6.363674645397435 6.131603678755884 -0.0780357945401704 0 0 0
40 1 1 8.860641907022181 1.8265274866993106 -0.312379809575269 0 0 0
41 1 1 10.109053360289868 1.100118851274357 -0.3720315689718685 0 0 0
48 1 1 11.355819757165728 1.829286400709063 -0.31285140237967823 0 0 0
49 1 1 12.60478685246539 1.102959487319887 -0.36007765639785383 0 0 0
34 1 1 8.859515781399573 3.260940808024354 -0.2189519380634497 0 0 0
42 1 1 11.353948479851708 3.2633704244560064 -0.2150515712861676 0 0 0
703 1 1 10.105990589082845 3.979883562761346 -0.1831128234975381 0 0 0
696 1 1 8.857131504975962 6.134205180115277 -0.09878355298407904 0 0 0
697 1 1 10.10462127378412 5.417205670619728 -0.12259489695725989 0 0 0
711 1 1 12.600066243423372 3.981925262055382 -0.16344839246780296 0 0 0
56 1 1 13.850348551257497 1.8300730825272726 -0.26315310421784943 0 0 0
57 1 1 15.09850768070745 1.1008458452232732 -0.2614671182131154 0 0 0
88 1 1 23.82532976095847 1.8358902824213166 0.058594140595348065 0 0 0
81 1 1 22.580722875370128 1.1054833492760512 -0.02375331147838544 0 0 0
82 1 1 23.822479161729543 3.272769575656877 0.09673688640589972 0 0 0
73 1 1 20.087144296336874 1.1038106000522774 -0.1169805989319439 0 0 0
80 1 1 21.332162021968493 1.8339534324421924 -0.03877078518240573 0 0 0
89 1 1 25.07329716841243 1.1070097870944489 0.09433280860833371 0 0 0
97 1 1 27.566985014585548 1.110061718886274 0.18875806025852704 0 0 0
104 1 1 28.813444525967352 1.8422726806782093 0.20062406676490419 0 0 0
96 1 1 26.31864291489959 1.838500108637641 0.15405226336021904 0 0 0
90 1 1 26.316025588122585 3.275815701069141 0.17062333150348152 0 0 0
105 1 1 30.06266549891994 1.1143635599119506 0.19432333313785755 0 0 0
137 1 1 40.035186875160534 1.1567698659620769 -0.33362127400231145 0 0 0
129 1 1 37.54318901280279 1.140308207127311 -0.14237629405909047 0 0 0
136 1 1 38.788064230961815 1.875914943251245 -0.18935960814148523 0 0 0
130 1 1 38.78424850663457 3.310956328945979 -0.10016903416332745 0 0 0
799 1 1 40.02808365317404 4.035334797651959 -0.12870494712329794 0 0 0
793 1 1 40.02328101075072 5.471783128530422 -0.04773443492974572 0 0 0
144 1 1 41.27954436840258 1.8941526281041758 -0.37266490288398657 0 0 0
145 1 1 42.52655949606759 1.1804740845580612 -0.5444079067864784 0 0 0
152 1 1 43.7720688042818 1.9171275831455894 -0.5450138089130903 0 0 0
153 1 1 45.02118269128522 1.2091245513298992 -0.7257669567411824 0 0 0
146 1 1 43.767631391814376 3.3443122458200962 -0.37143315655588083 0 0 0
807 1 1 42.51946448616213 4.0507165420245155 -0.25030442073247805 0 0 0
815 1 1 45.012110653001706 4.06578431896474 -0.3280884900246548 0 0 0
809 1 1 45.006583636929946 5.497040940516612 -0.18730944900727486 0 0 0
138 1 1 41.275490751126156 3.3264169214830437 -0.24652457869962063 0 0 0
801 1 1 42.514575881899674 5.484789905767023 -0.13794670871716086 0 0 0
808 1 1 43.75811991053787 6.207407060484394 -0.11627703764354358 0 0 0
800 1 1 41.266697555608225 6.19554394276383 -0.055828606178899065 0 0 0
176 1 1 51.25719415315665 1.9360743910395648 -0.39464509763145905 0 0 0
161 1 1 47.5226526826375 1.2277314372395365 -0.774839560554561 0 0 0
168 1 1 48.766611963368376 1.9449640505856935 -0.5951486032100846 0 0 0
169 1 1 50.021792389449196 1.2262740655790214 -0.6482786540728611 0 0 0
162 1 1 48.756204105085295 3.364944966085705 -0.3705699730499177 0 0 0
170 1 1 51.24495469753733 3.359445854727131 -0.1923297054192581 0 0 0
831 1 1 49.99621436886646 4.075296907875076 -0.20284378181301754 0 0 0
825 1 1 49.98808926860757 5.505043416011313 -0.04769080150477478 0 0 0
832 1 1 51.22718076728617 6.218111074210077 0.10540663412911755 0 0 0
160 1 1 46.26862497476004 1.9375372062460956 -0.6402262712548357 0 0 0
154 1 1 46.26196702252222 3.3593140004532858 -0.4272676463163716 0 0 0
823 1 1 47.50553038163604 4.075190018616759 -0.3201661363013706 0 0 0
816 1 1 46.2498863940973 6.216719768340779 -0.12221541292826643 0 0 0
817 1 1 47.49863744618634 5.504619168992907 -0.16312458282073727 0 0 0
824 1 1 48.740395216244515 6.220492428791145 -0.049737259968724246 0 0 0
177 1 1 52.50612821632335 1.2057829387110814 -0.3514431911721996 0 0 0
184 1 1 53.73868887233347 1.920371022435865 -0.09758479010656274 0 0 0
185 1 1 54.985994217517764 1.1896723733131518 -0.023384080665849183 0 0 0
192 1 1 56.21235498050689 1.9043551718912717 0.2580362449964628 0 0 0
186 1 1 56.200894916728075 3.335372489865109 0.39771276221130947 0 0 0
178 1 1 53.726176467801494 3.347918229074171 0.07399065354860745 0 0 0
839 1 1 52.48076695891864 4.067611672328761 0.012672201407806227 0 0 0
847 1 1 54.95883200721697 4.056730240205981 0.29692783085119956 0 0 0
833 1 1 52.47248227616627 5.499365534284843 0.15115143233131612 0 0 0
193 1 1 57.45277036951291 1.170286078413194 0.38963240691163925 0 0 0
802 1 1 43.753375805879045 7.642252810691405 -0.022681867006141943 0 0 0
1471 1 1 44.996689031938686 8.363429335812372 0.01871992762769814 0 0 0
810 1 1 46.244664448252344 7.650178925493218 -0.012642647469625956 0 0 0
818 1 1 48.73459188279797 7.653546016695792 0.06486424469236596 0 0 0
6018 1 1 33.742053100763975 42.11490180312029 0.029087164304934632 0 0 0
6665 1 1 30.002196646448894 44.26632962364135 -0.05822351187477359 0 0 0
6672 1 1 31.248031067219593 44.98486921822535 -0.10508903426048732 0 0 0
6673 1 1 32.495002851352695 44.2682007569001 -0.07273299770439401 0 0 0
6679 1 1 32.49545896989337 42.83154947317601 -0.01064565409726903 0 0 0
6680 1 1 33.74107205234509 44.98716332203485 -0.10974918598766692 0 0 0
6681 1 1 34.98782015286528 44.27105370224261 -0.055329777639739675 0 0 0
6687 1 1 34.98780307817479 42.83470504235969 0.01528301108070984 0 0 0
6689 1 1 37.48024280090119 44.27469420851539 -0.0020986908793290127 0 0 0
6696 1 1 38.72644310003919 44.99434095966407 -0.004666630538023853 0 0 0
6697 1 1 39.971653262691426 44.27909742157 0.08882146910429967 0 0 0
6026 1 1 36.234036314841404 42.11842766027054 0.07257010847044398 0 0 0
6688 1 1 36.23408864696624 44.990339835489124 -0.07699435995101744 0 0 0
6695 1 1 37.479720379606356 42.83843471332827 0.07117756279544984 0 0 0
6704 1 1 41.217284362613135 44.99923174751064 0.1083206520009714 0 0 0
7250 1 1 8.811942925155904 50.57833382777699 -0.4974836988182414 0 0 0
7256 1 1 8.814864445768913 49.270817957342686 -0.1520936411184053 0 0 0
7265 1 1 12.551609296687799 48.56336416518134 0.06477447285981519 0 0 0
7271 1 1 12.554711469235812 47.12567814322395 0.10194772554646647 0 0 0
7266 1 1 13.797476596491784 50.61767099953857 -0.3037214584179626 0 0 0
7272 1 1 13.797458785256463 49.28722248737633 -0.05850497607521277 0 0 0
7281 1 1 17.5358584327516 48.57095324171213 0.197344742412902 0 0 0
7282 1 1 18.78182783407485 50.64829624538358 0.3826969018386137 0 0 0
7288 1 1 18.78291774366341 49.30070640827595 0.2538729547205616 0 0 0
7273 1 1 15.043854789142877 48.566599303775504 0.08331040279119861 0 0 0
7279 1 1 15.046680214681412 47.12935565314831 0.11824638646421448 0 0 0
7337 1 1 34.98723515519406 48.574698393550705 -0.3572749992486468 0 0 0
7343 1 1 34.98734107418951 47.14085238533581 -0.2446673847866201 0 0 0
7327 1 1 29.99966291299841 47.13743704024812 -0.20879708516513773 0 0 0
7321 1 1 29.998488541825978 48.571853961925044 -0.310074650381015 0 0 0
7330 1 1 33.73568173605159 50.65548434751406 -0.21775576547043407 0 0 0
7336 1 1 33.73796168476368 49.305598377181695 -0.3156278642645418 0 0 0
7335 1 1 32.49325419260544 47.138159603762226 -0.25221970050891507 0 0 0
7329 1 1 32.491271663398905 48.57168614131344 -0.36825523727715925 0 0 0
6666 1 1 31.24710054974114 46.420563790636606 -0.18633378702810433 0 0 0
6674 1 1 33.74070751097959 46.42249314860341 -0.2008309774173309 0 0 0
7322 1 1 31.23163867259143 50.58250139960725 -0.9047413379973452 0 0 0
7328 1 1 31.24019162705131 49.28065736858087 -0.5375272225793122 0 0 0
7345 1 1 37.48260184991949 48.578239278160915 -0.30488203237755407 0 0 0
7352 1 1 38.72657978041463 49.312849915746476 -0.20821041352846947 0 0 0
7353 1 1 39.97721644290576 48.58319365564531 -0.20472659984794284 0 0 0
6682 1 1 36.23451630814583 46.425590858757246 -0.17114790417613257 0 0 0
6690 1 1 38.72768905918732 46.429669891876514 -0.097574580650857 0 0 0
7351 1 1 37.48174913701087 47.14433578103484 -0.19335404661205935 0 0 0
7359 1 1 39.97445951542167 47.149068231996495 -0.09543443347507896 0 0 0
7338 1 1 36.24259207011062 50.6017222226311 -0.8374672845991586 0 0 0
7344 1 1 36.23763483053211 49.28914825576808 -0.5095930884504334 0 0 0
7346 1 1 38.72015522112952 50.662782673126344 -0.11001376770537874 0 0 0
7369 1 1 44.95451313401159 48.59885373437012 0.15795771124406777 0 0 0
7368 1 1 43.70284481675961 49.32566310166821 0.1189391349616109 0 0 0
7354 1 1 41.249598305713754 50.60913902337882 -0.6442904340569626 0 0 0
7360 1 1 41.23195453503557 49.29874027631606 -0.3085479477115367 0 0 0
6698 1 1 41.21903709121421 46.43488899761685 0.02173983223980791 0 0 0
7367 1 1 42.464915948623066 47.15513471659347 0.051151263377761325 0 0 0
7361 1 1 42.4673278754232 48.59000930399763 -0.04721138751309617 0 0 0
7370 1 1 46.2337190575388 50.639611035436026 -0.17950303251306643 0 0 0
7376 1 1 46.20933579092483 49.319626881887245 0.11592786554577472 0 0 0
7538 1 1 98.38165101509155 50.59025182078407 -0.2937658698509704 0 0 0
7 1 1 -2.358906803577185 -0.27425917902047825 -0.0007663576405132488 0 0 0
11 2 2 0.12474494883723519 -0.15176682662483998 3.368853762128591 0 0 0
19 2 2 2.616945504629019 -0.1498866497132756 3.2079126404350884 0 0 0
3 2 2 -2.3669426898089707 -0.15204622511079613 3.539356756266409 0 0 0
5 2 2 -1.1213344137252081 0.32454728460472104 3.451537594329274 0 0 0
13 2 2 1.3703309804908783 0.3257084673518511 3.2852715621020714 0 0 0
27 2 2 5.111704475876804 -0.14672734090251183 3.0985721006380427 0 0 0
35 2 2 7.608228563547305 -0.14383776763225065 3.049740932436789 0 0 0
21 2 2 3.8636997207595147 0.32838218470141367 3.152697563366205 0 0 0
29 2 2 6.359463909756556 0.3314760360844442 3.0771489576902873 0 0 0
43 2 2 10.1051730567176 -0.14179771238381456 3.0596602975961567 0 0 0
51 2 2 12.601561162896166 -0.14023016082504292 3.1161469732580844 0 0 0
37 2 2 8.85628602128257 0.33393295038413573 3.0592104905629363 0 0 0
45 2 2 11.352913213169584 0.3356473330527381 3.0950279733376966 0 0 0
71 1 1 17.596168028273468 -0.24865107617315552 -0.27991480246925704 0 0 0
59 2 2 15.097680899322999 -0.13785744376227171 3.1857095620447566 0 0 0
67 2 2 17.59400411531565 -0.13452965331531086 3.249445606329127 0 0 0
53 2 2 13.848880406818697 0.33754493992040047 3.16077868157978 0 0 0
61 2 2 16.345036662575836 0.340462387583214 3.2232717955649726 0 0 0
69 2 2 18.841294469544405 0.34410551529587163 3.2877246882903286 0 0 0
75 2 2 20.08996538710194 -0.13057326292270055 3.3315834959848036 0 0 0
83 2 2 22.584814443899088 -0.12569875564218602 3.449674906799869 0 0 0
77 2 2 21.336743416085667 0.3483693543275441 3.383853560585168 0 0 0
85 2 2 23.83107165864381 0.3538595086405536 3.511310999050302 0 0 0
91 2 2 25.079191687612898 -0.11931709743583152 3.5849283288322713 0 0 0
99 2 2 27.57532246995878 -0.11224775698015677 3.693956421024801 0 0 0
93 2 2 26.326021717454964 0.3605358275205921 3.636419243464303 0 0 0
101 2 2 28.823346493103926 0.3674855589337973 3.7118396486512797 0 0 0
119 1 1 32.56194129304676 -0.23378460140959234 0.16059733325271708 0 0 0
107 2 2 30.074034285188645 -0.10525021170938054 3.7339345210007373 0 0 0
115 2 2 32.57336756144474 -0.09852660676653979 3.695159958140941 0 0 0
123 2 2 35.07065658231573 -0.09161856599740492 3.57197886543225 0 0 0
109 2 2 31.32233309554882 0.37418047025682366 3.713177555565945 0 0 0
117 2 2 33.82084161019869 0.3807735508320951 3.638075155690858 0 0 0
131 2 2 37.562985280973244 -0.0824109013063401 3.3593276766305884 0 0 0
139 2 2 40.05090390454115 -0.0673718555692604 3.08943697497976 0 0 0
125 2 2 36.31595488023062 0.38829423058753587 3.4769824299944716 0 0 0
133 2 2 38.80575349741956 0.399727079353422 3.2406424762836856 0 0 0
147 2 2 42.539862766631614 -0.0460478642093376 2.820038491485482 0 0 0
155 2 2 45.03656430438953 -0.022815443057774942 2.6275763737890756 0 0 0
141 2 2 41.2934192769298 0.41741647426415973 2.9741381377355864 0 0 0
149 2 2 43.78531391711223 0.4397888917024666 2.743167833001502 0 0 0
163 2 2 47.54041210420995 -0.007106717159030218 2.5902102206403494 0 0 0
171 2 2 50.040576546455036 -0.003586222777215653 2.7280668652161992 0 0 0
157 2 2 46.285838829448075 0.45961483291566996 2.6289567440193338 0 0 0
165 2 2 48.78851896957645 0.469173283498721 2.6822909900238976 0 0 0
173 2 2 51.28217544846168 0.46769703323817957 2.8974285496260013 0 0 0
179 2 2 52.527065448479235 -0.009856165825382845 3.0199226789888804 0 0 0
187 2 2 54.99620820923251 -0.020701554216895346 3.430169737662876 0 0 0
181 2 2 53.76025090380319 0.45918754562330477 3.245645668177872 0 0 0
189 2 2 56.22306236317278 0.44960256077970495 3.6843610088935304 0 0 0
207 1 1 59.91273190748467 -0.1985760442808262 0.8010555945137874 0 0 0
195 2 2 57.453197509262964 -0.02928259054581339 3.9045358558880316 0 0 0
203 2 2 59.909096389567 -0.032322432302153814 4.381113427326348 0 0 0
197 2 2 58.67901211566093 0.4441349494807296 4.157007729207017 0 0 0
205 2 2 61.13988110869411 0.44403734161105035 4.60086848332044 0 0 0
215 1 1 62.36703270077595 -0.20661384339537037 1.3019269507230344 0 0 0
231 1 1 67.33184859873288 -0.20810728191015126 1.8834857171130501 0 0 0
223 1 1 64.85427074524583 -0.2086421807772476 1.5620132103224318 0 0 0
211 2 2 62.374224888360374 -0.0304428881637131 4.803948730088429 0 0 0
219 2 2 64.85066710876877 -0.026433525941122582 5.15363663647814 0 0 0
227 2 2 67.33561489291601 -0.021340636904123578 5.440404257382596 0 0 0
213 2 2 63.611987074333385 0.4471314563099211 4.976867045448191 0 0 0
221 2 2 66.0934181049861 0.4514722757709908 5.28642790079174 0 0 0
247 1 1 72.30595687049627 -0.2027100120945855 2.340955518730876 0 0 0
239 1 1 69.81891768817967 -0.20660222026131247 2.108620713393158 0 0 0
235 2 2 69.82760170123716 -0.01595076108629545 5.664560745522579 0 0 0
243 2 2 72.32525925046079 -0.010572295180352853 5.824354480173824 0 0 0
229 2 2 68.58196973751508 0.45643082569019366 5.537044559676779 0 0 0
237 2 2 71.07666796296887 0.4614399692529121 5.724161233611635 0 0 0
255 1 1 74.80256632651897 -0.20299964235909584 2.4069630821703676 0 0 0
263 1 1 77.29969746740885 -0.20463935220892626 2.3801267459244535 0 0 0
251 2 2 74.82671374966186 -0.005285028762574306 5.924272233008409 0 0 0
259 2 2 77.33031202924693 0.0007210155081756042 5.975216041442501 0 0 0
245 2 2 73.57596451774764 0.4663158396538245 5.848933796199397 0 0 0
253 2 2 76.0779275839497 0.4715879763190287 5.921464198108975 0 0 0
271 1 1 79.79801642742804 -0.20112256087718716 2.458859275929143 0 0 0
279 1 1 82.2966020579325 -0.20273554253002857 2.363234231911406 0 0 0
267 2 2 79.83497853779015 0.0074496083098898325 5.973741538902061 0 0 0
275 2 2 82.3388561649076 0.013030369608780568 5.89658716830019 0 0 0
261 2 2 78.58130902350834 0.47788611857942964 5.947278840012586 0 0 0
269 2 2 81.08505302491415 0.48410721882144525 5.910473119075991 0 0 0
277 2 2 83.58660133773877 0.488674810106021 5.7911550222963655 0 0 0
287 1 1 84.79088437589012 -0.20628718036977123 2.1632169958771925 0 0 0
295 1 1 87.27505372809541 -0.21113232247631153 1.8414033646381842 0 0 0
283 2 2 84.83840322508094 0.016218322516983186 5.725790793006009 0 0 0
291 2 2 87.32740493773746 0.01640414658324385 5.437028901091651 0 0 0
285 2 2 86.08167362741013 0.4907090932260951 5.571860574003491 0 0 0
293 2 2 88.56241341191678 0.4897720796267695 5.223118111413019 0 0 0
303 1 1 89.74662085862036 -0.21323122282012807 1.4127166633086592 0 0 0
299 2 2 89.79541303470602 0.014368982331788516 5.0008855862772705 0 0 0
307 2 2 92.23623156397905 0.014782065312690662 4.425937255913475 0 0 0
311 1 1 92.18680113432227 -0.2048838229001273 0.799264633878245 0 0 0
301 2 2 91.0180710823785 0.4880094562009356 4.723187393668624 0 0 0
309 2 2 93.45151800428013 0.49270776984199305 4.121218053380687 0 0 0
315 2 2 94.67176794221007 0.025240433145493846 3.8218898688900307 0 0 0
319 1 1 94.63137172630795 -0.17010920030072185 0.16681222011673214 0 0 0
323 2 2 97.14419583765174 0.040718399719340326 3.3940875885036377 0 0 0
317 2 2 95.90047708683058 0.5065775827841685 3.5804436691175603 0 0 0
325 2 2 98.39680410661335 0.5165708536441489 3.328221270286253 0 0 0
1 1 1 -2.359324322083348 1.0788476536384861 0.029451427601978608 0 0 0
2 1 1 -1.113759903345329 3.24739405893546 0.03200071990190523 0 0 0
4 2 2 -1.1221237037545602 1.7964188270568924 3.4353519218455446 0 0 0
12 2 2 1.3700009113315135 1.7977132255646788 3.2961127233501237 0 0 0
14 2 2 0.12353967288568635 2.511483836966889 3.36419120951723 0 0 0
22 2 2 2.616448041045781 2.513377072964804 3.247971385463744 0 0 0
667 2 2 0.12299220611422168 3.950809291036512 3.3637755512500256 0 0 0
675 2 2 2.6162272463539376 3.9525925685844143 3.2733572629232093 0 0 0
661 2 2 -1.124005411746165 4.6686484242478254 3.4048584680608016 0 0 0
669 2 2 1.369285284325802 4.670107651107889 3.323456616497289 0 0 0
663 1 1 -2.36066376624098 3.965048675614449 0.07837200297053393 0 0 0
659 2 2 -2.3701040725369835 3.9497243804513342 3.456454856990259 0 0 0
6 2 2 -2.369113251696099 2.5107025606989595 3.4872055963922897 0 0 0
660 2 2 -1.1247268360911207 6.107370537537877 3.394149879657876 0 0 0
664 1 1 -1.1155270107853397 6.123641227743002 0.06698447649089445 0 0 0
665 1 1 0.13137261819960377 5.406127873227206 0.03328464947210108 0 0 0
668 2 2 1.3687037104914328 6.108874362301513 3.334844769596419 0 0 0
672 1 1 1.3774432471547553 6.126113155912533 0.014578730302476473 0 0 0
657 1 1 -2.3616138896664483 5.403701219301164 0.08912012439418326 0 0 0
20 2 2 3.863500665492568 1.8001548122175102 3.1840164800314845 0 0 0
28 2 2 6.358794065256674 1.8029405039074327 3.1190060204632637 0 0 0
30 2 2 5.110749300404432 2.515941886924802 3.165758259297311 0 0 0
38 2 2 7.606302952294143 2.5184860666824562 3.1277430747838864 0 0 0
683 2 2 5.110335608672473 3.9548753816385 3.206200572382496 0 0 0
691 2 2 7.605304284989288 3.95727875691777 3.172364739522429 0 0 0
677 2 2 3.8629541903612497 4.672091329283749 3.2521339877211233 0 0 0
685 2 2 6.3573368313915 4.67437750119554 3.204975244880009 0 0 0
676 2 2 3.8623372348878746 6.110736375291824 3.27946345116424 0 0 0
684 2 2 6.356406934025312 6.112915597197775 3.239467667625366 0 0 0
704 1 1 11.350736448943534 6.136579351529372 -0.09685603323535474 0 0 0
705 1 1 12.598373206833099 5.419389927992878 -0.10709311596695592 0 0 0
36 2 2 8.854947061489614 1.8053135108319749 3.10297926269355 0 0 0
44 2 2 11.351003351557692 1.8072175606183665 3.1325207266112027 0 0 0
46 2 2 10.102228354783849 2.5206366059539533 3.1338886633647736 0 0 0
54 2 2 12.597851233619664 2.5227087829812502 3.174080503632128 0 0 0
699 2 2 10.100618684901924 3.9595622896795355 3.1737291682237228 0 0 0
707 2 2 12.595815664553255 3.9619171211145083 3.2032579412607003 0 0 0
693 2 2 8.852276552260301 4.676720918755601 3.1885129555809524 0 0 0
701 2 2 11.34733962238637 4.679085800232212 3.20166978632677 0 0 0
692 2 2 8.850877922012266 6.115282841409915 3.2222062209524847 0 0 0
700 2 2 11.345493715661972 6.117795131926556 3.2290288620464302 0 0 0
50 1 1 13.84810674041158 3.2648664038021504 -0.17681354141777206 0 0 0
65 1 1 17.593079032215883 1.102279032432965 -0.19626917026874935 0 0 0
72 1 1 18.838448728035846 1.8321270133060503 -0.12032265519839314 0 0 0
64 1 1 16.34433126508632 1.8304562599167085 -0.18943633189030074 0 0 0
52 2 2 13.84662668542282 1.8093832169431892 3.187489119383514 0 0 0
58 1 1 16.341876462448862 3.266139161252114 -0.11865256753976183 0 0 0
60 2 2 16.342335744224933 1.8124201608927244 3.24125692039949 0 0 0
62 2 2 15.093314315834132 2.5253714943670165 3.2248759279159867 0 0 0
66 1 1 18.835629736475582 3.2680768720236637 -0.05576698044693096 0 0 0
68 2 2 18.838070840142336 1.816163371808858 3.298245168469151 0 0 0
70 2 2 17.588888295918487 2.528806311838129 3.2752842661216945 0 0 0
715 2 2 15.090896511356192 3.9647677468326936 3.244710557270217 0 0 0
719 1 1 15.09388152229424 3.983536500085041 -0.11904992638941181 0 0 0
723 2 2 17.585977798515355 3.9682751475917506 3.2901431170344697 0 0 0
727 1 1 17.587507619201656 3.9853459777088673 -0.06276305360768042 0 0 0
709 2 2 13.842293320009738 4.6817440919984 3.234083406977355 0 0 0
717 2 2 16.337195408106513 4.684959969103343 3.2743213203927883 0 0 0
725 2 2 18.8320106999955 4.688777171454213 3.3225239476475323 0 0 0
708 2 2 13.84005859801955 6.120610369633919 3.253737983972753 0 0 0
712 1 1 13.844302372993425 6.1387220403540095 -0.07303184402580776 0 0 0
713 1 1 15.091959563462122 5.421340956414948 -0.07091629771613128 0 0 0
716 2 2 16.33455007784766 6.1239186731900634 3.288468073119887 0 0 0
720 1 1 16.337717701177308 6.140860041381675 -0.0336086272434688 0 0 0
721 1 1 17.58539110099672 5.423446084792566 -0.022805755060526067 0 0 0
724 2 2 18.828933628009306 6.12778384168837 3.3318496656102745 0 0 0
728 1 1 18.831026507589122 6.143218087849348 0.014961524235516777 0 0 0
74 1 1 21.329166322251364 3.270286590154365 0.016307818804513374 0 0 0
76 2 2 21.333160762673135 1.8205064665691602 3.3822666651221507 0 0 0
78 2 2 20.084213278833435 2.5328360479434764 3.340261788383147 0 0 0
84 2 2 23.827382649742265 1.825859772139454 3.492464320313541 0 0 0
86 2 2 22.578785838536295 2.5375947023803764 3.4318960260377445 0 0 0
731 2 2 20.080841826383228 3.9723714692282055 3.3481574169872914 0 0 0
735 1 1 20.081058682460682 3.9875779145540324 0.0005803094905800776 0 0 0
739 2 2 22.57521514112842 3.977120244501174 3.4250411164024577 0 0 0
743 1 1 22.574449724227566 3.9900902092142303 0.07190820502221307 0 0 0
733 2 2 21.32651755253029 4.693185008889719 3.38552868341964 0 0 0
741 2 2 23.8207326786521 4.698249683430577 3.4602044830508554 0 0 0
729 1 1 20.078745846063523 5.425875778962212 0.03259933022924422 0 0 0
732 2 2 21.323089581634058 6.132210058856238 3.3864244012424365 0 0 0
736 1 1 21.324276819175445 6.145867968617601 0.06964229075799544 0 0 0
737 1 1 22.57201275589083 5.4285850279340355 0.09371117430951692 0 0 0
740 2 2 23.81704327118672 6.1372149923666495 3.448489671195457 0 0 0
744 1 1 23.817499962354425 6.148849458073707 0.1268864753047989 0 0 0
98 1 1 28.81048264047795 3.2796808868115956 0.209905898662889 0 0 0
759 1 1 27.561847219399926 3.996579389174075 0.19713320275945811 0 0 0
753 1 1 27.558920942820873 5.435312242125541 0.19933153084079258 0 0 0
760 1 1 28.804460075985617 6.156289808692749 0.2083092188028548 0 0 0
751 1 1 25.067883996108797 3.9930279708430163 0.14381563426704247 0 0 0
92 2 2 26.32204556015605 1.8322467270227243 3.599246616212813 0 0 0
94 2 2 25.07311218177443 2.5433319977119666 3.5348771038984754 0 0 0
100 2 2 28.81853395955812 1.8389995543281588 3.663722291180264 0 0 0
102 2 2 27.56848049958817 2.5497588087339897 3.6156146292455276 0 0 0
747 2 2 25.06944570844834 3.9826282443773007 3.50825220511037 0 0 0
755 2 2 27.56431020969286 3.9887302801200324 3.5727809835245026 0 0 0
749 2 2 26.31513724279127 4.70395786936351 3.528910271961763 0 0 0
757 2 2 28.810084427277374 4.710166702827886 3.570812297217259 0 0 0
745 1 1 25.065316496011388 5.4316806226504575 0.15394431068681946 0 0 0
748 2 2 26.311078098348062 6.142781904266382 3.504839588630766 0 0 0
752 1 1 26.310848911416386 6.1522873284859525 0.1774381692283704 0 0 0
756 2 2 28.805395286699103 6.148875881096634 3.539858665561546 0 0 0
112 1 1 31.309125079408872 1.84696185868912 0.19102459631106328 0 0 0
113 1 1 32.558739451294386 1.1196758575976196 0.16542876613400104 0 0 0
120 1 1 33.804707024374146 1.852963758494889 0.13529301747271028 0 0 0
106 1 1 31.305430592588763 3.2844037461314883 0.20408248132580376 0 0 0
775 1 1 32.551036826400626 4.006116420107107 0.18889314492323095 0 0 0
121 1 1 35.05453432573487 1.127138024028567 0.07935926471891186 0 0 0
114 1 1 33.8000467783471 3.290482863943792 0.15279455386689023 0 0 0
769 1 1 32.546741879080265 5.444915424709546 0.19725786389578737 0 0 0
767 1 1 30.05643295224978 4.000843046097678 0.2141819361798447 0 0 0
761 1 1 30.052872007759248 5.439625624235399 0.21605606583642079 0 0 0
768 1 1 31.298161032451766 6.161078649956643 0.20955322365784923 0 0 0
783 1 1 35.0447205715898 4.013153384742541 0.11660363297149345 0 0 0
776 1 1 33.79147552663893 6.16702578294003 0.1770459762323835 0 0 0
777 1 1 35.03990501701796 5.451734724244991 0.14084174328833576 0 0 0
108 2 2 31.31620587429505 1.8457620185416426 3.6659494660369685 0 0 0
110 2 2 30.065136645632364 2.5563878493247367 3.6471427694743994 0 0 0
116 2 2 33.81334644861487 1.852713278947454 3.603087203369812 0 0 0
118 2 2 32.5620634301965 2.5632059873763886 3.620129504589311 0 0 0
126 2 2 35.05760894288631 2.5706491955885307 3.530575614187928 0 0 0
763 2 2 30.05992367554392 3.995219247057557 3.5982349698836273 0 0 0
771 2 2 32.5555642609783 4.00218307064846 3.576437521764664 0 0 0
779 2 2 35.05014101920555 4.009987179552681 3.504899344844171 0 0 0
765 2 2 31.305294206862854 4.716849677209977 3.573310232954608 0 0 0
773 2 2 33.80002944177253 4.724240678726053 3.531996173557385 0 0 0
764 2 2 31.29979021264844 6.15556163974164 3.5435556485013446 0 0 0
772 2 2 33.7937797970468 6.163039211095533 3.5126648955204995 0 0 0
128 1 1 36.29744985628015 1.8622551667501313 -0.003384367738568983 0 0 0
122 1 1 36.29296957496341 3.299118660602123 0.0442142688155478 0 0 0
791 1 1 37.536899807998665 4.022699140830044 0.0026342511412842384 0 0 0
784 1 1 36.2839782529349 6.1745736342900415 0.11319181698055125 0 0 0
785 1 1 37.53200532305643 5.46058289320224 0.05315703221035761 0 0 0
124 2 2 36.30781515749462 1.8607035436350587 3.468766321779965 0 0 0
132 2 2 38.798298447575284 1.8718237516381029 3.272845460438157 0 0 0
134 2 2 37.55015079297687 2.5799552510245887 3.3795448592509914 0 0 0
142 2 2 40.04009907941114 2.5928472227042976 3.189372302187577 0 0 0
787 2 2 37.54273211959417 4.019393133009238 3.3872223694898675 0 0 0
795 2 2 40.03376511417508 4.031240431244687 3.242905307265044 0 0 0
781 2 2 36.293471712334004 4.7327989631885625 3.447740869428314 0 0 0
789 2 2 38.785424802365135 4.743134097740935 3.3314250230436304 0 0 0
780 2 2 36.286886026324396 6.171582673815964 3.4493567076449665 0 0 0
788 2 2 38.779064416725525 6.18141266659994 3.36403290374175 0 0 0
792 1 1 38.77557292121469 6.184124983878142 0.0291801142842516 0 0 0
140 2 2 41.287237721004104 1.8877815599196124 3.053800480828434 0 0 0
148 2 2 43.779640606552334 1.9071594250206658 2.868774690428422 0 0 0
150 2 2 42.53079172639256 2.609549114462517 3.004766234108823 0 0 0
158 2 2 45.02591332649083 2.626801771440241 2.884721072214722 0 0 0
803 2 2 42.52539757707482 4.045304185351057 3.108167215544512 0 0 0
811 2 2 45.01967909775153 4.059247899776768 3.0290175514758353 0 0 0